
         
 *******************************************************************************
 *                                                                             *
 *                               CRYSTAL23                                     *
 *                      public : 1.0.1 - October 2022                          *
 *                       HTTP://WWW.CRYSTAL.UNITO.IT                           *
 *                                                                             *
 *                              MAIN AUTHORS                                   *
 *                                                                             *
 *  R. DOVESI(1,11), V.R. SAUNDERS(2), C. ROETTI(1,11), R. ORLANDO(1,11),      *
 *  C.M. ZICOVICH-WILSON(1,3), F. PASCALE(4), B. CIVALLERI(1,11),              *
 *  K. DOLL(5), N.M. HARRISON(6), I.J. BUSH(7), Ph. D'ARCO(8),                 *
 *  M. LLUNELL(9), M. CAUSA'(10), Y. NOEL(8), L. MASCHIO(1,11), A. ERBA(1,11)  *
 *  M. RE'RAT(14), S. CASASSA(1,11), B.G. SEARLE(2), J.K. DESMARAIS(1)         *
 *                                                                             *
 *        CONTRIBUTIONS TO THE CODE HAVE ALSO BEEN GIVEN BY                    *
 *                                                                             *
 *  M. FERRABONE(1,11), M. DE LA PIERRE(1,11), M. FERRERO(1,11),               *
 *  J. BAIMA(1,11), E. ALBANESE(1,11), M.F. PEINTINGER(12), R. BAST(13),       *
 *  B. KIRTMAN(15), V. LACIVITA(1,11), R. DEMICHELIS(1,16)                     *
 *  G. BRANDEBURG(17), S. SALUSTRO(1,11), G. SANSONE(1,11)                     *
 *  M.T. RUGGIERO(18), L.E. DAGA(1), L. DONA'(1), A. COSSARD(1)                *
 *                                                                             *
 * (1) THEORETICAL CHEMISTRY GROUP - UNIVERSITA' DI TORINO - TORINO (ITALY)    *
 * (2) SCIENTIFIC COMPUTING DEPARTMENT - STFC DARESBURY (UK)                   *
 * (3) UNIVERSIDAD AUTONOMA DEL ESTADO DE MORELOS - CUERNAVACA (MEXICO)        *
 * (4) UNIVERSITE' DE LORRAINE - NANCY (FRANCE)                                *
 * (5) UNIVERSITAET STUTTGART- STUTTGART (GERMANY)                             *
 * (6) IMPERIAL COLLEGE - LONDON (UK)                                          *
 * (7) SCIENTIFIC COMPUTING DEPARTMENT - STFC RAL (UK)                         *
 * (8) UPMC - SORBONNE UNIVERSITES - PARIS (FRANCE)                            *
 * (9) UNIVERSIDAD DE BARCELONA - BARCELONA (SPAIN)                            *
 *(10) UNIVERSITA' DI NAPOLI "FEDERICO II" - NAPOLI (ITALY)                    *
 *(11) NIS - NANOSTRUCTURED INTERFACES AND SURFACES - TORINO (ITALY)           *
 *(12) MPI FUER CHEMISCHE ENERGIEKONVERSION - MUELHEIM AN DER RUHR (GERMANY)   *
 *(13) UNIVERSITY OF TROMSO - TROMSO (NORWAY)                                  *
 *(14) UNIVERSITE' DE PAU ET DES PAYS DE L'ADOUR - PAU (FRANCE)                *
 *(15) UNIVERSITY OF CALIFORNIA SANTA BARBARA - SANTA BARBARA (USA)            *
 *(16) CURTIN UNIVERSITY - PERTH (AUSTRALIA)                                   *
 *(17) UNIVERSITY COLLEGE LONDON - LONDON (UK)                                 *
 *(18) UNIVERSITY OF VERMONT - BURLINGTON (USA)                                *
 *                                                                             *
 *******************************************************************************
 EEEEEEEEEE STARTING  DATE 04 08 2025 TIME 17:31:56.3
 INFORMATION **** SET_MPP **** PCRYSTAL CALCULATION

 *******************************************************************************
 TEST12 - UREA BULK BASE 6-21 + POLARIZATION                                     
 CRYSTAL - PROPERTIES - TYPE OF CALCULATION :  RESTRICTED CLOSED SHELL
 *******************************************************************************
 HARTREE-FOCK HAMILTONIAN

 DIRECT LATTICE VECTOR COMPONENTS (ANGSTROM)
         5.56500    0.00000    0.00000
         0.00000    5.56500    0.00000
         0.00000    0.00000    4.68400

 LATTICE PARAMETERS  (ANGSTROM AND DEGREES) - PRIMITIVE CELL
       A          B          C         ALPHA      BETA     GAMMA        VOLUME
    5.56500    5.56500    4.68400     90.0000   90.0000   90.0000     145.05985
 *******************************************************************************
 N. OF ATOMS PER CELL        16 COULOMB OVERLAP TOL          (T1) 10**   -6
 NUMBER OF SHELLS            56 COULOMB PENETRATION TOL      (T2) 10**   -6
 NUMBER OF AO               152 EXCHANGE OVERLAP TOL         (T3) 10**   -6
 N. OF ELECTRONS PER CELL    64 EXCHANGE PSEUDO OVP (F(G))   (T4) 10**   -6
 CORE ELECTRONS PER CELL     16 EXCHANGE PSEUDO OVP (P(G))   (T5) 10**  -12
 N. OF SYMMETRY OPERATORS     8 POLE ORDER IN MONO ZONE                   4
 *******************************************************************************
   ATOM N.AT.  SHELL    X(A)      Y(A)      Z(A)      EXAD       N.ELECT.
 *******************************************************************************
    1    6 C     4     0.000     2.783     1.527   8.000E-01       4.804
    2    6 C     4     2.783     0.000    -1.527   8.000E-01       4.804
    3    8 O     4     0.000     2.783    -1.896   8.000E-01       8.780
    4    8 O     4     2.783     0.000     1.896   8.000E-01       8.780
    5    7 N     4     0.812    -1.971     0.827   8.000E-01       7.749
    6    7 N     4    -0.812     1.971     0.827   8.000E-01       7.749
    7    7 N     4    -1.971    -0.812    -0.827   8.000E-01       7.749
    8    7 N     4     1.971     0.812    -0.827   8.000E-01       7.749
    9    1 H     3     1.433    -1.350     1.324   1.100E+00       0.730
   10    1 H     3    -1.433     1.350     1.324   1.100E+00       0.730
   11    1 H     3    -1.350    -1.433    -1.324   1.100E+00       0.730
   12    1 H     3     1.350     1.433    -1.324   1.100E+00       0.730
   13    1 H     3     0.802    -1.981    -0.178   1.100E+00       0.729
   14    1 H     3    -0.802     1.981    -0.178   1.100E+00       0.729
   15    1 H     3    -1.981    -0.802     0.178   1.100E+00       0.729
   16    1 H     3     1.981     0.802     0.178   1.100E+00       0.729
 *******************************************************************************
 DE(K)                   0.000E+00  ENERGY LEVEL SHIFTING        0.00000
 TOTAL ENERGY -4.4768124599864E+02  CONVERGENCE ON ENER       -6.307E-08
 KIN. ENERGY   4.4702075734531E+02  VIR. COEFF.           9.99261778E-01
 N. OF SCF CYCLES                9  FERMI ENERGY              -0.384E+00
 WEIGHT OF F(I) IN F(I+1)      30
 SHRINK. FACT.(MONKH.)     2  2  2  SHRINKING FACTOR(GILAT NET)        2
 NUMBER OF K POINTS IN THE IBZ   6  CELL VOLUME (A.U.)        978.912403
 *******************************************************************************

 GCALCO - MAX INDICES DIRECT LATTICE VECTOR    14    14    16
 NO.OF VECTORS CREATED 6999 STARS  525 RMAX   117.81283 BOHR
 TTTTTTTTTTTTTTTTTTTTTTTTTTTTTT gordsh1     TELAPSE        0.06 TCPU        0.04

 MATRIX SIZE: P(G)  108364, F(G)   18098, P(G) IRR   10907, F(G) IRR    4245
 MAX G-VECTOR INDEX FOR 1- AND 2-ELECTRON INTEGRALS  81


 CAPPA:IS1  2;IS2  2;IS3  2; K PTS MONK NET   6; SYMMOPS:K SPACE  16;G SPACE   8

 *******************************************************************************
 *                                                                             *
 *                              T O P O N D  2 0 2 1                                                                *
 *                                                                             *
 *           AN ELECTRON DENSITY TOPOLOGICAL ANALYSIS PROGRAM FOR              *
 *                 SYSTEMS PERIODIC IN N (N=0-3) DIMENSIONS                    *
 *                                                                             *
 *               USER MANUAL BY CARLO GATTI AND SILVIA CASASSA                 *
 *                                                                             *
 *            CNR-ISTM, ISTITUTO DI SCIENZE E TECNOLOGIE MOLECOLARI            *
 *                   VIA GOLGI 19  - I-20133 MILANO - ITALIA                   *
 *                     E-MAIL: c.gatti@istm.cnr.it                             *
 *                                                                             *
 *******************************************************************************

  TOPOND PARAMETER 

  LIM016 [INF24]        =       1000
  LIM015 [INF20]        =         56
  LIM035 [LIM016*INF5]  =     525000
  NTOMAX [LIM016*INF5]  =     525000
  INF79  [INF79]        =       6999
  MAXGSTAR [INF2*INF5]  =        384

 *******************************************************************************
 *******************************************************************************
 *                                                                             *
 *               TOPOND GENERALISATION TO F AND G ATOMIC ORBITALS              *
 *                                                                             *
 *                     BY ALESSANDRO COSSARD, JACQUES DESMARAIS                *
 *                            AND ALESSANDRO ERBA                              *
 *                                                                             *
 *      PLEASE CITE: A. Cossard, J. K. Desmarais, S.Casassa, C. Gatti and      *
 *            A. Erba, J. Phys. Chem. Lett., 12, 1862-1868 (2021)              *
 *                                                                             *
 *******************************************************************************

CRYSTAL INFORMATION ON THE REFERENCE SYSTEM:

 DIRECT LATTICE VECTOR COMPONENTS (BOHR)
        10.51633    0.00000    0.00000
         0.00000   10.51633    0.00000
         0.00000    0.00000    8.85148

 LATTICE PARAMETERS  (BOHR AND DEGREES) - PRIMITIVE CELL
        A           B           C        ALPHA        BETA       GAMMA       VOLUME
    10.51633    10.51633     8.85148    90.00000    90.00000    90.00000   978.91240
 *******************************************************************************
 N. OF ATOMS PER CELL       16  COULOMB OVERLAP TOL         (T1) 10** -6
 NUMBER OF SHELLS           56  COULOMB PENETRATION TOL     (T2) 10** -6
 NUMBER OF AO              152  EXCHANGE OVERLAP TOL        (T3) 10** -6
 N. OF ELECTRONS PER CELL    64 EXCHANGE PSEUDO OVP (F(G))  (T4) 10** -6
 CORE ELECTRONS PER CELL    16  EXCHANGE PSEUDO OVP (P(G))  (T5) 10**-12
 N. OF SYMMETRY OPERATORS    8  POLE ORDER IN MONO ZONE                4
 *******************************************************************************
  ATOM  SHEL    X(AU)     Y(AU)     Z(AU)
 *******************************************************************************
    6 C    4     0.000     5.258     2.886
    6 C    4     5.258     0.000    -2.886
    8 O    4     0.000     5.258    -3.582
    8 O    4     5.258     0.000     3.582
    7 N    4     1.534    -3.724     1.563
    7 N    4    -1.534     3.724     1.563
    7 N    4    -3.724    -1.534    -1.563
    7 N    4     3.724     1.534    -1.563
    1 H    3     2.708    -2.550     2.502
    1 H    3    -2.708     2.550     2.502
    1 H    3    -2.550    -2.708    -2.502
    1 H    3     2.550     2.708    -2.502
    1 H    3     1.515    -3.743    -0.336
    1 H    3    -1.515     3.743    -0.336
    1 H    3    -3.743    -1.515     0.336
    1 H    3     3.743     1.515     0.336
 *******************************************************************************
 DE(K)                  0.000E+00  CONVERGENCE ON EIGENVALUES   10**-17
 WEIGHT OF F(I) IN F(I+1)     30%  CONVERGENCE ON ENERGY        10**- 7
 TOTAL ENERGY     -4.47681246E+02  FERMI ENERGY              -3.844E-01
 KIN. ENERGY       4.47020757E+02  VIR. COEFF.           9.99261778E-01
 SHRINK. FACT.(MONKH.)    2  2  2  STARS FOR FOURIER EXP. OF E(K)     1
 SHRINKING FACTOR (GILAT NET)   2  NUMBER OF K POINTS IN THE IBZ      6
 CELL VOLUME (A.U.)         978.912N. OF SCF CYCLES                   9
 ENERGY LEVEL SHIFTING    0.00000
 *******************************************************************************

 NEIGHBORS OF THE NON-EQUIVALENT ATOMS

 N = NUMBER OF NEIGHBORS AT DISTANCE R
    ATOM  N     R/ANG      R/AU   NEIGHBORS (ATOM LABELS AND CELL INDICES)

   1 C    1     1.2614     2.3837   3 O    0 0 1
   1 C    2     1.3447     2.5411   5 N    0 1 0   6 N    0 0 0
   1 C    2     2.0367     3.8488   9 H    0 1 0  10 H    0 0 0
   1 C    2     2.0477     3.8696  13 H    0 1 0  14 H    0 0 0
   1 C    2     2.6461     5.0004  11 H    0 1 1  12 H    0 0 1
   1 C    2     3.1089     5.8750  15 H    0 1 0  16 H    0 0 0
   1 C    2     3.1876     6.0237  13 H    0 1 1  14 H    0 0 1

   3 O    1     1.2614     2.3837   1 C    0 0-1
   3 O    2     1.9922     3.7647  11 H    0 1 0  12 H    0 0 0
   3 O    2     2.0582     3.8895  13 H    0 1 0  14 H    0 0 0
   3 O    2     2.2726     4.2946   5 N    0 1-1   6 N    0 0-1
   3 O    2     2.5002     4.7246   9 H    0 1-1  10 H    0 0-1
   3 O    2     2.9550     5.5842   5 N    0 1 0   6 N    0 0 0
   3 O    2     2.9846     5.6401   7 N    0 1 0   8 N    0 0 0

   5 N    1     1.0053     1.8997  13 H    0 0 0
   5 N    1     1.0092     1.9070   9 H    0 0 0
   5 N    1     1.3447     2.5411   1 C    0-1 0
   5 N    1     2.2726     4.2946   3 O    0-1 1
   5 N    1     2.2965     4.3397   6 N    0-1 0
   5 N    1     2.4939     4.7127  14 H    0-1 0
   5 N    1     2.9550     5.5842   3 O    0-1 0

   9 H    1     1.0092     1.9070   5 N    0 0 0
   9 H    1     1.7473     3.3019  13 H    0 0 0
   9 H    1     1.9922     3.7647   4 O    0 0 0
   9 H    1     2.0367     3.8488   1 C    0-1 0
   9 H    2     2.4984     4.7214  15 H    1 0 0  16 H    0 0 0
   9 H    1     2.5002     4.7246   3 O    0-1 1
   9 H    1     2.6461     5.0004   2 C    0 0 1

  13 H    1     1.0053     1.8997   5 N    0 0 0
  13 H    1     1.7473     3.3019   9 H    0 0 0
  13 H    1     2.0477     3.8696   1 C    0-1 0
  13 H    1     2.0582     3.8895   3 O    0-1 0
  13 H    1     2.2682     4.2862  14 H    0-1 0
  13 H    1     2.4939     4.7127   6 N    0-1 0
  13 H    2     2.4984     4.7214  11 H    0 0 0  12 H    0-1 0

 *******************************************************************************
       TOPOLOGICAL ANALYSIS OF -(LAP(RHO)) : ATOMIC CLUSTERS CONSIDERED
 *******************************************************************************
 CLUSTERS AROUND EACH OF THE NON-EQUIVALENT ATOMS

 NON-EQUIV. ATOM       1 C (N.      1 IN THE UNIT CELL), CLUSTER OF     13 ATOMS
 NEW  OLD   CELL  AT. NU.         COORD.(AU)             DISTANCE (ANG)
     1       3       0     0     1    8        0.000   5.258   5.269          1.261
     2       5       0     1     0    7        1.534   6.792   1.563          1.345
     3       6       0     0     0    7       -1.534   3.724   1.563          1.345
     4       9       0     1     0    1        2.708   7.966   2.502          2.037
     5      10       0     0     0    1       -2.708   2.550   2.502          2.037
     6      13       0     1     0    1        1.515   6.774  -0.336          2.048
     7      14       0     0     0    1       -1.515   3.743  -0.336          2.048
     8      11       0     1     1    1       -2.550   7.808   6.349          2.646
     9      12       0     0     1    1        2.550   2.708   6.349          2.646
    10      15       0     1     0    1       -3.743   9.001   0.336          3.109
    11      16       0     0     0    1        3.743   1.515   0.336          3.109
    12      13       0     1     1    1        1.515   6.774   8.515          3.188
    13      14       0     0     1    1       -1.515   3.743   8.515          3.188

 NON-EQUIV. ATOM       2 O (N.      3 IN THE UNIT CELL), CLUSTER OF     13 ATOMS
 NEW  OLD   CELL  AT. NU.         COORD.(AU)             DISTANCE (ANG)
     1       1       0     0    -1    6        0.000   5.258  -5.966          1.261
     2      11       0     1     0    1       -2.550   7.808  -2.502          1.992
     3      12       0     0     0    1        2.550   2.708  -2.502          1.992
     4      13       0     1     0    1        1.515   6.774  -0.336          2.058
     5      14       0     0     0    1       -1.515   3.743  -0.336          2.058
     6       5       0     1    -1    7        1.534   6.792  -7.288          2.273
     7       6       0     0    -1    7       -1.534   3.724  -7.288          2.273
     8       9       0     1    -1    1        2.708   7.966  -6.349          2.500
     9      10       0     0    -1    1       -2.708   2.550  -6.349          2.500
    10       5       0     1     0    7        1.534   6.792   1.563          2.955
    11       6       0     0     0    7       -1.534   3.724   1.563          2.955
    12       7       0     1     0    7       -3.724   8.982  -1.563          2.985
    13       8       0     0     0    7        3.724   1.534  -1.563          2.985

 NON-EQUIV. ATOM       3 N (N.      5 IN THE UNIT CELL), CLUSTER OF      7 ATOMS
 NEW  OLD   CELL  AT. NU.         COORD.(AU)             DISTANCE (ANG)
     1      13       0     0     0    1        1.515  -3.743  -0.336          1.005
     2       9       0     0     0    1        2.708  -2.550   2.502          1.009
     3       1       0    -1     0    6        0.000  -5.258   2.886          1.345
     4       3       0    -1     1    8        0.000  -5.258   5.269          2.273
     5       6       0    -1     0    7       -1.534  -6.792   1.563          2.296
     6      14       0    -1     0    1       -1.515  -6.774  -0.336          2.494
     7       3       0    -1     0    8        0.000  -5.258  -3.582          2.955

 NON-EQUIV. ATOM       4 H (N.      9 IN THE UNIT CELL), CLUSTER OF      8 ATOMS
 NEW  OLD   CELL  AT. NU.         COORD.(AU)             DISTANCE (ANG)
     1       5       0     0     0    7        1.534  -3.724   1.563          1.009
     2      13       0     0     0    1        1.515  -3.743  -0.336          1.747
     3       4       0     0     0    8        5.258   0.000   3.582          1.992
     4       1       0    -1     0    6        0.000  -5.258   2.886          2.037
     5      15       1     0     0    1        6.774  -1.515   0.336          2.498
     6      16       0     0     0    1        3.743   1.515   0.336          2.498
     7       3       0    -1     1    8        0.000  -5.258   5.269          2.500
     8       2       0     0     1    6        5.258   0.000   5.966          2.646

 NON-EQUIV. ATOM       5 H (N.     13 IN THE UNIT CELL), CLUSTER OF      8 ATOMS
 NEW  OLD   CELL  AT. NU.         COORD.(AU)             DISTANCE (ANG)
     1       5       0     0     0    7        1.534  -3.724   1.563          1.005
     2       9       0     0     0    1        2.708  -2.550   2.502          1.747
     3       1       0    -1     0    6        0.000  -5.258   2.886          2.048
     4       3       0    -1     0    8        0.000  -5.258  -3.582          2.058
     5      14       0    -1     0    1       -1.515  -6.774  -0.336          2.268
     6       6       0    -1     0    7       -1.534  -6.792   1.563          2.494
     7      11       0     0     0    1       -2.550  -2.708  -2.502          2.498
     8      12       0    -1     0    1        2.550  -7.808  -2.502          2.498



******************************************************************************

T O P O L O G I C A L  A N A L I S Y S  O F - (L A P L A C I A N  O F   R H O) 

******************************************************************************


 COMPUTATIONAL CONDITIONS :
                           IAUTO                                     :     0
                           ALGORITHM FOR CP SEARCH                   :    NR
                           ATOMIC GRAPH EVALUATION                   :     T
                           MAX.NUM. OF N.R. OR EIG. FOL. STEPS       :    20
                           NEIGHBORS OF EACH NON-EQUIVALENT ATOM     :     7
                           PRINT N.RAPH OR E.FOL. SEARCH             :     F
                           NUMBER OF ANGLE THETA INTERVALS           :    12
                           NUMBER OF ANGLE PHI INTERVALS             :    18


 ****** CP SEARCH FOR NON-EQUIVALENT ATOM      1 C  ******

 SPHERE RADIUS (ANG)            :  4.9743E-01

 CP N.      1   VSCC OF NON-EQUIV. ATOM      1 C 
 *********

 CP TYPE                        :  (3,-1)
 COORD(AU)  (X  Y  Z)           :  1.0478E+00  5.0523E+00  3.1918E+00
 COORD FRACT. CONV. CELL        :  9.9636E-02  4.8042E-01  3.6059E-01
 PROPERTIES (-LAP,GLAP,RHO)     : -1.1964E-01  1.9296E-15  1.3126E-01

 SPECTRAL DECOMP. OF THE HESSIAN OF -LAP(RHO)

 EIGENVALUES (L1 L2 L3)         : -3.5990E+00 -4.1033E-01  1.7021E+00
 EIGENVECTORS                   : -9.4526E-01 -2.2141E-02  3.2558E-01
                                   7.8014E-02  9.5343E-01  2.9134E-01
                                  -3.1687E-01  3.0079E-01 -8.9951E-01


 VECTORS FROM NUCLEI TO CP (LENGTHS AND ANGLES MADE WITH PROJ. ONTO YZ,XZ,XY)


 SYM OLD    CELL      RX(ANG)    YZ      XZ      XY
 C        1      0     0     0    0.5878   70.60   10.68   16.00
 O        3      0     0     1    1.2361   26.65    5.06   62.80
 N        5      0     1     0    1.2873   11.54   45.67   42.03
 N        6      0     0     0    1.7618   50.86   23.52   29.29
 H        9      0     1     0    1.8118   29.01   58.33   11.62
 H       10      0     0     0    2.4158   55.35   33.23    8.69
 H       13      0     1     0    2.0920    6.79   25.81   63.18
 H       14      0     0     0    2.4095   34.26   16.71   50.79
 H       11      0     1     1    2.9230   40.65   29.93   34.86
 H       12      0     0     1    2.2277   20.91   33.84   48.59
 H       15      0     1     0    3.6161   44.51   35.30   24.70
 H       16      0     0     0    2.7964   30.66   42.01   32.71
 H       13      0     1     1    2.9709    4.78   17.85   71.48
 H       14      0     0     1    3.2024   25.06   12.50   61.60

 **********
 ATTRACTORS OF THE UNIQUE PAIRS OF GRAD(LAP) TRAJ. ORIGINATING AT (3,-1) CP
 **********

 CP N.      2
**********

 ATTRACTOR CP TYPE              :  (3,-3)
 COORD(AU)  (X  Y  Z)           :  9.2851E-01  6.1867E+00  2.0760E+00
 COORD FRACT. CONV. CELL        :  8.8292E-02 -4.1171E-01  2.3454E-01
 PROPERTIES (-LAP,GLAP,RHO)     :  1.5835E+00  7.3707E-16  4.3560E-01
 TRAJECTORY LENGTH(ANG)         :  9.3116E-01
 INTEGRATION STEPS              :      34

 CLUSTER OF ATOMS AROUND THE TERMINUS OF THE PATH 
 NEW  OLD   CELL  AT. NU.         COORD.(AU)             DISTANCE (ANG)
     1       5       0     1     0    7        1.534   6.792   1.563          0.528
     2       1       0     0     0    6        0.000   5.258   2.886          0.816
     3      13       0     1     0    1        1.515   6.774  -0.336          1.350
     4       9       0     1     0    1        2.708   7.966   2.502          1.351


 CP N.      3
**********

 ATTRACTOR CP TYPE              :  (3,-3)
 COORD(AU)  (X  Y  Z)           :  1.5928E-17  5.2582E+00  4.3967E+00
 COORD FRACT. CONV. CELL        :  1.5146E-18  5.0000E-01  4.9671E-01
 PROPERTIES (-LAP,GLAP,RHO)     :  1.8598E+00  2.1844E-14  5.9501E-01
 TRAJECTORY LENGTH(ANG)         :  9.6012E-01
 INTEGRATION STEPS              :      33

 CLUSTER OF ATOMS AROUND THE TERMINUS OF THE PATH 
 NEW  OLD   CELL  AT. NU.         COORD.(AU)             DISTANCE (ANG)
     1       3       0     0     1    8        0.000   5.258   5.269          0.462
     2       1       0     0     0    6        0.000   5.258   2.886          0.800
     3       5       0     1     0    7        1.534   6.792   1.563          1.889
     4       6       0     0     0    7       -1.534   3.724   1.563          1.889



 TTRAJ (ANG) ; RAB ; (TTRAJ/RAB):  1.8913E+00  1.4110E+00  1.3404E+00

 CP N.      4   VSCC OF NON-EQUIV. ATOM      1 C 
 *********

 CP TYPE                        :  (3,-1)
 COORD(AU)  (X  Y  Z)           :  6.2971E-01  4.6285E+00  2.2240E+00
 COORD FRACT. CONV. CELL        :  5.9879E-02  4.4012E-01  2.5126E-01
 PROPERTIES (-LAP,GLAP,RHO)     : -8.7970E-02  6.8100E-16  1.3261E-01

 SPECTRAL DECOMP. OF THE HESSIAN OF -LAP(RHO)

 EIGENVALUES (L1 L2 L3)         : -3.7195E+00 -5.5092E-01  1.4645E+00
 EIGENVECTORS                   : -5.0596E-01  4.9397E-01  7.0711E-01
                                   5.0596E-01 -4.9397E-01  7.0711E-01
                                   6.9857E-01  7.1554E-01 -2.5935E-16


 VECTORS FROM NUCLEI TO CP (LENGTHS AND ANGLES MADE WITH PROJ. ONTO YZ,XZ,XY)


 SYM OLD    CELL      RX(ANG)    YZ      XZ      XY
 C        1      0     0     0    0.5871   34.58   34.58   36.61
 O        3      0     0     1    1.6790   11.45   11.45   73.70
 N        5      0     1     0    1.2895   21.79   62.63   15.74
 N        6      0     0     0    1.2895   62.63   21.79   15.74
 H        9      0     1     0    2.0858   31.82   57.86    4.05
 H       10      0     0     0    2.0858   57.86   31.82    4.05
 H       13      0     1     0    1.8287   14.85   38.37   47.81
 H       14      0     0     0    1.8287   38.37   14.85   47.81
 H       11      0     1     1    3.2293   31.41   31.41   42.53
 H       12      0     0     1    2.6136   22.88   22.88   56.64
 H       15      0     1     0    3.4213   42.55   42.55   16.98
 H       16      0     0     0    2.5348   40.53   40.53   23.21
 H       13      0     1     1    3.5484    7.59   18.66   69.75
 H       14      0     0     1    3.5484   18.66    7.59   69.75

 **********
 ATTRACTORS OF THE UNIQUE PAIRS OF GRAD(LAP) TRAJ. ORIGINATING AT (3,-1) CP
 **********

 ATTRACTOR CP TYPE              :  (3,-3)
 COORD(AU)  (X  Y  Z)           :  9.2851E-01  6.1867E+00  2.0760E+00
 COORD FRACT. CONV. CELL        :  8.8292E-02 -4.1171E-01  2.3454E-01
 PROPERTIES (-LAP,GLAP,RHO)     :  1.5835E+00  2.1557E-15  4.3560E-01
 TRAJECTORY LENGTH(ANG)         :  9.2554E-01
 INTEGRATION STEPS              :      28

 CLUSTER OF ATOMS AROUND THE TERMINUS OF THE PATH 
 NEW  OLD   CELL  AT. NU.         COORD.(AU)             DISTANCE (ANG)
     1       5       0     1     0    7        1.534   6.792   1.563          0.528
     2       1       0     0     0    6        0.000   5.258   2.886          0.816
     3      13       0     1     0    1        1.515   6.774  -0.336          1.350
     4       9       0     1     0    1        2.708   7.966   2.502          1.351


 CP N.      5
**********

 ATTRACTOR CP TYPE              :  (3,-3)
 COORD(AU)  (X  Y  Z)           : -9.2851E-01  4.3297E+00  2.0760E+00
 COORD FRACT. CONV. CELL        : -8.8292E-02  4.1171E-01  2.3454E-01
 PROPERTIES (-LAP,GLAP,RHO)     :  1.5835E+00  1.9584E-15  4.3560E-01
 TRAJECTORY LENGTH(ANG)         :  9.2554E-01
 INTEGRATION STEPS              :      28

 CLUSTER OF ATOMS AROUND THE TERMINUS OF THE PATH 
 NEW  OLD   CELL  AT. NU.         COORD.(AU)             DISTANCE (ANG)
     1       6       0     0     0    7       -1.534   3.724   1.563          0.528
     2       1       0     0     0    6        0.000   5.258   2.886          0.816
     3      14       0     0     0    1       -1.515   3.743  -0.336          1.350
     4      10       0     0     0    1       -2.708   2.550   2.502          1.351



 TTRAJ (ANG) ; RAB ; (TTRAJ/RAB):  1.8511E+00  1.3897E+00  1.3320E+00

 CP N.      6   VSCC OF NON-EQUIV. ATOM      1 C 
 *********

 CP TYPE                        :  (3,-1)
 COORD(AU)  (X  Y  Z)           :  1.4268E+00  4.5771E+00  2.4890E+00
 COORD FRACT. CONV. CELL        :  1.3567E-01  4.3524E-01  2.8120E-01
 PROPERTIES (-LAP,GLAP,RHO)     : -1.3210E-01  2.8903E-12  5.6056E-02

 SPECTRAL DECOMP. OF THE HESSIAN OF -LAP(RHO)

 EIGENVALUES (L1 L2 L3)         : -2.7414E-01 -1.3412E-01  8.3959E-01
 EIGENVECTORS                   : -4.1899E-01 -5.0262E-01  7.5619E-01
                                  -5.6441E-01 -5.0821E-01 -6.5052E-01
                                   7.1126E-01 -6.9936E-01 -7.0751E-02


 VECTORS FROM NUCLEI TO CP (LENGTHS AND ANGLES MADE WITH PROJ. ONTO YZ,XZ,XY)


 SYM OLD    CELL      RX(ANG)    YZ      XZ      XY
 C        1      0     0     0    0.8626   61.09   24.70   14.08
 O        3      0     0     1    1.6925   26.49   12.30   60.37
 N        5      0     1     0    1.2719    2.56   67.18   22.66
 N        6      0     0     0    1.7027   66.96   15.38   16.72
 H        9      0     1     0    1.9173   20.71   69.29    0.21
 H       10      0     0     0    2.4368   63.89   26.11    0.17
 H       13      0     1     0    1.8944    1.42   37.85   52.12
 H       14      0     0     0    2.2033   44.96   11.56   42.73
 H       11      0     1     1    3.3949   38.31   30.24   36.99
 H       12      0     0     1    2.3461   14.68   24.93   60.54
 H       15      0     1     0    3.7764   46.42   38.31   17.56
 H       16      0     0     0    2.3291   31.75   44.08   29.28
 H       13      0     1     1    3.3944    0.79   20.02   69.96
 H       14      0     0     1    3.5760   25.81    7.09   63.09

 **********
 ATTRACTORS OF THE UNIQUE PAIRS OF GRAD(LAP) TRAJ. ORIGINATING AT (3,-1) CP
 **********

 CP N.      7
**********

 ATTRACTOR CP TYPE              :  (3,-3)
 COORD(AU)  (X  Y  Z)           :  5.2582E+00  5.2582E+00  4.4257E+00
 COORD FRACT. CONV. CELL        :  5.0000E-01  5.0000E-01 -5.0000E-01
 PROPERTIES (-LAP,GLAP,RHO)     : -4.2340E-04  2.9314E-17  4.1312E-05
 TRAJECTORY LENGTH(ANG)         :  3.2182E+00
 INTEGRATION STEPS              :      53

 CLUSTER OF ATOMS AROUND THE TERMINUS OF THE PATH 
 NEW  OLD   CELL  AT. NU.         COORD.(AU)             DISTANCE (ANG)
     1      12       0     0     1    1        2.550   2.708   6.349          2.216
     2      10       1     0     0    1        7.808   2.550   2.502          2.216
     3       9       0     1     0    1        2.708   7.966   2.502          2.216
     4      11       1     1     1    1        7.966   7.808   6.349          2.216


 ATTRACTOR CP TYPE              :  (3,-3)
 COORD(AU)  (X  Y  Z)           :  9.2851E-01  6.1867E+00  2.0760E+00
 COORD FRACT. CONV. CELL        :  8.8292E-02 -4.1171E-01  2.3454E-01
 PROPERTIES (-LAP,GLAP,RHO)     :  1.5835E+00  2.1972E-15  4.3560E-01
 TRAJECTORY LENGTH(ANG)         :  1.0294E+00
 INTEGRATION STEPS              :      30

 CLUSTER OF ATOMS AROUND THE TERMINUS OF THE PATH 
 NEW  OLD   CELL  AT. NU.         COORD.(AU)             DISTANCE (ANG)
     1       5       0     1     0    7        1.534   6.792   1.563          0.528
     2       1       0     0     0    6        0.000   5.258   2.886          0.816
     3      13       0     1     0    1        1.515   6.774  -0.336          1.350
     4       9       0     1     0    1        2.708   7.966   2.502          1.351



 TTRAJ (ANG) ; RAB ; (TTRAJ/RAB):  4.2476E+00  2.6527E+00  1.6012E+00

 CP N.      8   VSCC OF NON-EQUIV. ATOM      1 C 
 *********

 CP TYPE                        :  (3,+1)
 COORD(AU)  (X  Y  Z)           : -2.5057E-15  5.2582E+00  1.8388E+00
 COORD FRACT. CONV. CELL        : -2.3827E-16 -5.0000E-01  2.0773E-01
 PROPERTIES (-LAP,GLAP,RHO)     : -2.2914E-01  2.2355E-14  1.7662E-01

 SPECTRAL DECOMP. OF THE HESSIAN OF -LAP(RHO)

 EIGENVALUES (L1 L2 L3)         : -5.4745E+00  7.8050E-01  3.0589E+00
 EIGENVECTORS                   :  0.0000E+00 -7.0711E-01  7.0711E-01
                                   2.1744E-14  7.0711E-01  7.0711E-01
                                   1.0000E+00 -1.5375E-14 -1.5375E-14


 VECTORS FROM NUCLEI TO CP (LENGTHS AND ANGLES MADE WITH PROJ. ONTO YZ,XZ,XY)


 SYM OLD    CELL      RX(ANG)    YZ      XZ      XY
 C        1      0     0     0    0.5540    0.00    0.00   90.00
 O        3      0     0     1    1.8154    0.00    0.00   90.00
 N        5      0     1     0    1.1575   44.55   44.55    7.24
 N        6      0     0     0    1.1575   44.55   44.55    7.24
 H        9      0     1     0    2.0567   44.16   44.16    9.83
 H       10      0     0     0    2.0567   44.16   44.16    9.83
 H       13      0     1     0    1.6159   29.75   29.75   45.42
 H       14      0     0     0    1.6159   29.75   29.75   45.42
 H       11      0     1     1    3.0560   26.21   26.21   51.35
 H       12      0     0     1    3.0560   26.21   26.21   51.35
 H       15      0     1     0    2.9116   42.86   42.86   15.85
 H       16      0     0     0    2.9116   42.86   42.86   15.85
 H       13      0     1     1    3.7105   12.48   12.48   72.20
 H       14      0     0     1    3.7105   12.48   12.48   72.20

 CP N.      9   VSCC OF NON-EQUIV. ATOM      1 C 
 *********

 CP TYPE                        :  (3,+1)
 COORD(AU)  (X  Y  Z)           :  6.7132E-01  5.9295E+00  3.3613E+00
 COORD FRACT. CONV. CELL        :  6.3836E-02 -4.3616E-01  3.7975E-01
 PROPERTIES (-LAP,GLAP,RHO)     : -2.2897E-01  1.6794E-15  1.7269E-01

 SPECTRAL DECOMP. OF THE HESSIAN OF -LAP(RHO)

 EIGENVALUES (L1 L2 L3)         : -5.0398E+00  6.0780E-01  2.5324E+00
 EIGENVECTORS                   :  6.4924E-01  7.0711E-01 -2.8016E-01
                                   6.4924E-01 -7.0711E-01 -2.8016E-01
                                   3.9620E-01  2.9052E-16  9.1816E-01


 VECTORS FROM NUCLEI TO CP (LENGTHS AND ANGLES MADE WITH PROJ. ONTO YZ,XZ,XY)


 SYM OLD    CELL      RX(ANG)    YZ      XZ      XY
 C        1      0     0     0    0.5619   39.21   39.21   26.62
 O        3      0     0     1    1.1277   18.36   18.36   63.55
 N        5      0     1     0    1.1500   23.40   23.40   55.83
 N        6      0     0     0    1.9053   37.78   37.78   29.96
 H        9      0     1     0    1.5905   42.66   42.66   16.61
 H       10      0     0     0    2.5695   44.10   44.10   10.19
 H       13      0     1     0    2.0562   12.55   12.55   72.11
 H       14      0     0     0    2.5509   26.98   26.98   50.09
 H       11      0     1     1    2.5288   42.39   23.15   38.70
 H       12      0     0     1    2.5288   23.15   42.39   38.70
 H       15      0     1     0    3.2650   45.68   29.85   29.36
 H       16      0     0     0    3.2650   29.85   45.68   29.36
 H       13      0     1     1    2.7995    9.18    9.18   76.96
 H       14      0     0     1    3.1806   21.34   21.34   59.03

 CP N.     10   VSCC OF NON-EQUIV. ATOM      1 C 
 *********

 CP TYPE                        :  (3,-1)
 COORD(AU)  (X  Y  Z)           : -6.2971E-01  5.8879E+00  2.2240E+00
 COORD FRACT. CONV. CELL        : -5.9879E-02 -4.4012E-01  2.5126E-01
 PROPERTIES (-LAP,GLAP,RHO)     : -8.7970E-02  1.3187E-11  1.3261E-01

 SPECTRAL DECOMP. OF THE HESSIAN OF -LAP(RHO)

 EIGENVALUES (L1 L2 L3)         : -3.7195E+00 -5.5092E-01  1.4645E+00
 EIGENVECTORS                   : -5.0596E-01 -4.9397E-01  7.0711E-01
                                   5.0596E-01  4.9397E-01  7.0711E-01
                                  -6.9857E-01  7.1554E-01 -1.7893E-12


 VECTORS FROM NUCLEI TO CP (LENGTHS AND ANGLES MADE WITH PROJ. ONTO YZ,XZ,XY)


 SYM OLD    CELL      RX(ANG)    YZ      XZ      XY
 C        1      0     0     0    0.5871   34.58   34.58   36.61
 O        3      0     0     1    1.6790   11.45   11.45   73.70
 N        5      0     1     0    1.2895   62.63   21.79   15.74
 N        6      0     0     0    1.2895   21.79   62.63   15.74
 H        9      0     1     0    2.0858   57.86   31.82    4.05
 H       10      0     0     0    2.0858   31.82   57.86    4.05
 H       13      0     1     0    1.8287   38.37   14.85   47.81
 H       14      0     0     0    1.8287   14.85   38.37   47.81
 H       11      0     1     1    2.6136   22.88   22.88   56.64
 H       12      0     0     1    3.2293   31.41   31.41   42.53
 H       15      0     1     0    2.5348   40.53   40.53   23.21
 H       16      0     0     0    3.4213   42.55   42.55   16.98
 H       13      0     1     1    3.5484   18.66    7.59   69.75
 H       14      0     0     1    3.5484    7.59   18.66   69.75

 **********
 ATTRACTORS OF THE UNIQUE PAIRS OF GRAD(LAP) TRAJ. ORIGINATING AT (3,-1) CP
 **********

 ATTRACTOR CP TYPE              :  (3,-3)
 COORD(AU)  (X  Y  Z)           :  9.2851E-01  6.1867E+00  2.0760E+00
 COORD FRACT. CONV. CELL        :  8.8292E-02 -4.1171E-01  2.3454E-01
 PROPERTIES (-LAP,GLAP,RHO)     :  1.5835E+00  1.1545E-14  4.3560E-01
 TRAJECTORY LENGTH(ANG)         :  9.2554E-01
 INTEGRATION STEPS              :      28

 CLUSTER OF ATOMS AROUND THE TERMINUS OF THE PATH 
 NEW  OLD   CELL  AT. NU.         COORD.(AU)             DISTANCE (ANG)
     1       5       0     1     0    7        1.534   6.792   1.563          0.528
     2       1       0     0     0    6        0.000   5.258   2.886          0.816
     3      13       0     1     0    1        1.515   6.774  -0.336          1.350
     4       9       0     1     0    1        2.708   7.966   2.502          1.351


 ATTRACTOR CP TYPE              :  (3,-3)
 COORD(AU)  (X  Y  Z)           : -9.2851E-01  4.3297E+00  2.0760E+00
 COORD FRACT. CONV. CELL        : -8.8292E-02  4.1171E-01  2.3454E-01
 PROPERTIES (-LAP,GLAP,RHO)     :  1.5835E+00  4.4234E-15  4.3560E-01
 TRAJECTORY LENGTH(ANG)         :  9.2554E-01
 INTEGRATION STEPS              :      28

 CLUSTER OF ATOMS AROUND THE TERMINUS OF THE PATH 
 NEW  OLD   CELL  AT. NU.         COORD.(AU)             DISTANCE (ANG)
     1       6       0     0     0    7       -1.534   3.724   1.563          0.528
     2       1       0     0     0    6        0.000   5.258   2.886          0.816
     3      14       0     0     0    1       -1.515   3.743  -0.336          1.350
     4      10       0     0     0    1       -2.708   2.550   2.502          1.351



 TTRAJ (ANG) ; RAB ; (TTRAJ/RAB):  1.8511E+00  1.3897E+00  1.3320E+00

 CP N.     11   VSCC OF NON-EQUIV. ATOM      1 C 
 *********

 CP TYPE                        :  (3,-1)
 COORD(AU)  (X  Y  Z)           : -2.0589E-01  6.3060E+00  3.1918E+00
 COORD FRACT. CONV. CELL        : -1.9578E-02 -4.0036E-01  3.6059E-01
 PROPERTIES (-LAP,GLAP,RHO)     : -1.1964E-01  3.7781E-13  1.3126E-01

 SPECTRAL DECOMP. OF THE HESSIAN OF -LAP(RHO)

 EIGENVALUES (L1 L2 L3)         : -3.5990E+00 -4.1033E-01  1.7021E+00
 EIGENVECTORS                   : -7.8014E-02  9.5343E-01  2.9134E-01
                                   9.4526E-01 -2.2141E-02  3.2558E-01
                                   3.1687E-01  3.0079E-01 -8.9951E-01


 VECTORS FROM NUCLEI TO CP (LENGTHS AND ANGLES MADE WITH PROJ. ONTO YZ,XZ,XY)


 SYM OLD    CELL      RX(ANG)    YZ      XZ      XY
 C        1      0     0     0    0.5878   10.68   70.60   16.00
 O        3      0     0     1    1.2361    5.06   26.65   62.80
 N        5      0     1     0    1.2873   45.67   11.54   42.03
 N        6      0     0     0    1.7618   23.52   50.86   29.29
 H        9      0     1     0    1.8118   58.33   29.01   11.62
 H       10      0     0     0    2.4158   33.23   55.35    8.69
 H       13      0     1     0    2.0920   25.81    6.79   63.18
 H       14      0     0     0    2.4095   16.71   34.26   50.79
 H       11      0     1     1    2.2277   33.84   20.91   48.59
 H       12      0     0     1    2.9230   29.93   40.65   34.86
 H       15      0     1     0    2.7964   42.01   30.66   32.71
 H       16      0     0     0    3.6161   35.30   44.51   24.70
 H       13      0     1     1    2.9709   17.85    4.78   71.48
 H       14      0     0     1    3.2024   12.50   25.06   61.60

 **********
 ATTRACTORS OF THE UNIQUE PAIRS OF GRAD(LAP) TRAJ. ORIGINATING AT (3,-1) CP
 **********

 ATTRACTOR CP TYPE              :  (3,-3)
 COORD(AU)  (X  Y  Z)           :  9.2851E-01  6.1867E+00  2.0760E+00
 COORD FRACT. CONV. CELL        :  8.8292E-02 -4.1171E-01  2.3454E-01
 PROPERTIES (-LAP,GLAP,RHO)     :  1.5835E+00  2.1905E-15  4.3560E-01
 TRAJECTORY LENGTH(ANG)         :  9.3116E-01
 INTEGRATION STEPS              :      34

 CLUSTER OF ATOMS AROUND THE TERMINUS OF THE PATH 
 NEW  OLD   CELL  AT. NU.         COORD.(AU)             DISTANCE (ANG)
     1       5       0     1     0    7        1.534   6.792   1.563          0.528
     2       1       0     0     0    6        0.000   5.258   2.886          0.816
     3      13       0     1     0    1        1.515   6.774  -0.336          1.350
     4       9       0     1     0    1        2.708   7.966   2.502          1.351


 ATTRACTOR CP TYPE              :  (3,-3)
 COORD(AU)  (X  Y  Z)           : -1.1716E-17  5.2582E+00  4.3967E+00
 COORD FRACT. CONV. CELL        : -1.1141E-18  5.0000E-01  4.9671E-01
 PROPERTIES (-LAP,GLAP,RHO)     :  1.8598E+00  2.1817E-14  5.9501E-01
 TRAJECTORY LENGTH(ANG)         :  9.6012E-01
 INTEGRATION STEPS              :      33

 CLUSTER OF ATOMS AROUND THE TERMINUS OF THE PATH 
 NEW  OLD   CELL  AT. NU.         COORD.(AU)             DISTANCE (ANG)
     1       3       0     0     1    8        0.000   5.258   5.269          0.462
     2       1       0     0     0    6        0.000   5.258   2.886          0.800
     3       5       0     1     0    7        1.534   6.792   1.563          1.889
     4       6       0     0     0    7       -1.534   3.724   1.563          1.889



 TTRAJ (ANG) ; RAB ; (TTRAJ/RAB):  1.8913E+00  1.4110E+00  1.3404E+00

 CP N.     12   VSCC OF NON-EQUIV. ATOM      1 C 
 *********

 CP TYPE                        :  (3,-1)
 COORD(AU)  (X  Y  Z)           : -6.8107E-01  6.6850E+00  2.4890E+00
 COORD FRACT. CONV. CELL        : -6.4763E-02 -3.6433E-01  2.8120E-01
 PROPERTIES (-LAP,GLAP,RHO)     : -1.3210E-01  3.2069E-16  5.6056E-02

 SPECTRAL DECOMP. OF THE HESSIAN OF -LAP(RHO)

 EIGENVALUES (L1 L2 L3)         : -2.7414E-01 -1.3412E-01  8.3959E-01
 EIGENVECTORS                   :  5.6441E-01 -5.0821E-01  6.5052E-01
                                   4.1899E-01 -5.0262E-01 -7.5619E-01
                                  -7.1126E-01 -6.9936E-01  7.0751E-02


 VECTORS FROM NUCLEI TO CP (LENGTHS AND ANGLES MADE WITH PROJ. ONTO YZ,XZ,XY)


 SYM OLD    CELL      RX(ANG)    YZ      XZ      XY
 C        1      0     0     0    0.8626   24.70   61.09   14.08
 O        3      0     0     1    1.6925   12.30   26.49   60.37
 N        5      0     1     0    1.2719   67.18    2.56   22.66
 N        6      0     0     0    1.7027   15.38   66.96   16.72
 H        9      0     1     0    1.9173   69.29   20.71    0.21
 H       10      0     0     0    2.4368   26.11   63.89    0.17
 H       13      0     1     0    1.8944   37.85    1.42   52.12
 H       14      0     0     0    2.2033   11.56   44.96   42.73
 H       11      0     1     1    2.3461   24.93   14.68   60.54
 H       12      0     0     1    3.3949   30.24   38.31   36.99
 H       15      0     1     0    2.3291   44.08   31.75   29.28
 H       16      0     0     0    3.7764   38.31   46.42   17.56
 H       13      0     1     1    3.3944   20.02    0.79   69.96
 H       14      0     0     1    3.5760    7.09   25.81   63.09

 **********
 ATTRACTORS OF THE UNIQUE PAIRS OF GRAD(LAP) TRAJ. ORIGINATING AT (3,-1) CP
 **********

 ATTRACTOR CP TYPE              :  (3,-3)
 COORD(AU)  (X  Y  Z)           :  9.2851E-01  6.1867E+00  2.0760E+00
 COORD FRACT. CONV. CELL        :  8.8292E-02 -4.1171E-01  2.3454E-01
 PROPERTIES (-LAP,GLAP,RHO)     :  1.5835E+00  3.3722E-15  4.3560E-01
 TRAJECTORY LENGTH(ANG)         :  1.0294E+00
 INTEGRATION STEPS              :      30

 CLUSTER OF ATOMS AROUND THE TERMINUS OF THE PATH 
 NEW  OLD   CELL  AT. NU.         COORD.(AU)             DISTANCE (ANG)
     1       5       0     1     0    7        1.534   6.792   1.563          0.528
     2       1       0     0     0    6        0.000   5.258   2.886          0.816
     3      13       0     1     0    1        1.515   6.774  -0.336          1.350
     4       9       0     1     0    1        2.708   7.966   2.502          1.351


 CP N.     13
**********

 ATTRACTOR CP TYPE              :  (3,-3)
 COORD(AU)  (X  Y  Z)           : -1.6574E-14  1.0516E+01  4.4257E+00
 COORD FRACT. CONV. CELL        : -1.5761E-15 -8.8818E-16 -5.0000E-01
 PROPERTIES (-LAP,GLAP,RHO)     : -4.2340E-04  2.8032E-17  4.1312E-05
 TRAJECTORY LENGTH(ANG)         :  3.2182E+00
 INTEGRATION STEPS              :      53

 CLUSTER OF ATOMS AROUND THE TERMINUS OF THE PATH 
 NEW  OLD   CELL  AT. NU.         COORD.(AU)             DISTANCE (ANG)
     1      11       0     1     1    1       -2.550   7.808   6.349          2.216
     2      10       0     1     0    1       -2.708  13.067   2.502          2.216
     3       9       0     1     0    1        2.708   7.966   2.502          2.216
     4      12       0     1     1    1        2.550  13.224   6.349          2.216



 TTRAJ (ANG) ; RAB ; (TTRAJ/RAB):  4.2476E+00  2.6527E+00  1.6012E+00

 CP N.     14   VSCC OF NON-EQUIV. ATOM      1 C 
 *********

 CP TYPE                        :  (3,+1)
 COORD(AU)  (X  Y  Z)           : -1.0285E+00  6.2867E+00  2.4012E+00
 COORD FRACT. CONV. CELL        : -9.7799E-02 -4.0220E-01  2.7128E-01
 PROPERTIES (-LAP,GLAP,RHO)     : -1.4082E-01  1.3006E-11  5.6390E-02

 SPECTRAL DECOMP. OF THE HESSIAN OF -LAP(RHO)

 EIGENVALUES (L1 L2 L3)         : -1.7707E-01  1.5720E-01  6.7766E-01
 EIGENVECTORS                   : -6.3163E-02 -7.0711E-01  7.0428E-01
                                   6.3163E-02 -7.0711E-01 -7.0428E-01
                                   9.9600E-01  6.2157E-11  8.9326E-02


 VECTORS FROM NUCLEI TO CP (LENGTHS AND ANGLES MADE WITH PROJ. ONTO YZ,XZ,XY)


 SYM OLD    CELL      RX(ANG)    YZ      XZ      XY
 C        1      0     0     0    0.8113   42.14   42.14   18.42
 O        3      0     0     1    1.7017   18.65   18.65   63.11
 N        5      0     1     0    1.4517   69.10   10.63   17.79
 N        6      0     0     0    1.4517   10.63   69.10   17.79
 H        9      0     1     0    2.1685   65.76   24.20    1.41
 H       10      0     0     0    2.1685   24.20   65.76    1.41
 H       13      0     1     0    1.9943   42.46    7.42   46.59
 H       14      0     0     0    1.9943    7.42   42.46   46.59
 H       11      0     1     1    2.3794   19.78   19.78   61.41
 H       12      0     0     1    3.3967   33.89   33.89   37.96
 H       15      0     1     0    2.3065   38.52   38.52   28.28
 H       16      0     0     0    3.7341   42.54   42.54   17.01
 H       13      0     1     1    3.5137   22.53    4.21   67.04
 H       14      0     0     1    3.5137    4.21   22.53   67.04

 CP N.     15   VSCC OF NON-EQUIV. ATOM      1 C 
 *********

 CP TYPE                        :  (3,+1)
 COORD(AU)  (X  Y  Z)           : -8.5462E-01  6.1128E+00  2.9651E+00
 COORD FRACT. CONV. CELL        : -8.1266E-02 -4.1873E-01  3.3499E-01
 PROPERTIES (-LAP,GLAP,RHO)     : -1.5634E-01  6.8326E-16  9.0089E-02

 SPECTRAL DECOMP. OF THE HESSIAN OF -LAP(RHO)

 EIGENVALUES (L1 L2 L3)         : -8.5071E-01  3.3006E-01  6.3876E-01
 EIGENVECTORS                   :  6.9731E-01 -7.0711E-01  1.1732E-01
                                  -6.9731E-01 -7.0711E-01 -1.1732E-01
                                  -1.6591E-01 -1.1809E-15  9.8614E-01


 VECTORS FROM NUCLEI TO CP (LENGTHS AND ANGLES MADE WITH PROJ. ONTO YZ,XZ,XY)


 SYM OLD    CELL      RX(ANG)    YZ      XZ      XY
 C        1      0     0     0    0.6410   44.88   44.88    3.77
 O        3      0     0     1    1.3769   19.18   19.18   62.32
 N        5      0     1     0    1.5093   56.89   13.79   29.44
 N        6      0     0     0    1.5093   13.79   56.89   29.44
 H        9      0     1     0    2.1391   61.80   27.29    6.57
 H       10      0     0     0    2.1391   27.29   61.80    6.57
 H       13      0     1     0    2.1789   35.14    9.23   53.31
 H       14      0     0     0    2.1789    9.23   35.14   53.31
 H       11      0     1     1    2.1948   24.13   24.13   54.68
 H       12      0     0     1    3.1144   35.35   35.35   35.10
 H       15      0     1     0    2.5704   36.48   36.48   32.77
 H       16      0     0     0    3.7111   40.96   40.96   22.01
 H       13      0     1     1    3.2126   22.98    6.25   66.09
 H       14      0     0     1    3.2126    6.25   22.98   66.09

 CP N.     16   VSCC OF NON-EQUIV. ATOM      1 C 
 *********

 CP TYPE                        :  (3,-1)
 COORD(AU)  (X  Y  Z)           : -1.0478E+00  5.4641E+00  3.1918E+00
 COORD FRACT. CONV. CELL        : -9.9636E-02 -4.8042E-01  3.6059E-01
 PROPERTIES (-LAP,GLAP,RHO)     : -1.1964E-01  1.5603E-14  1.3126E-01

 SPECTRAL DECOMP. OF THE HESSIAN OF -LAP(RHO)

 EIGENVALUES (L1 L2 L3)         : -3.5990E+00 -4.1033E-01  1.7021E+00
 EIGENVECTORS                   : -9.4526E-01  2.2141E-02  3.2558E-01
                                   7.8014E-02 -9.5343E-01  2.9134E-01
                                   3.1687E-01  3.0079E-01  8.9951E-01


 VECTORS FROM NUCLEI TO CP (LENGTHS AND ANGLES MADE WITH PROJ. ONTO YZ,XZ,XY)


 SYM OLD    CELL      RX(ANG)    YZ      XZ      XY
 C        1      0     0     0    0.5878   70.60   10.68   16.00
 O        3      0     0     1    1.2361   26.65    5.06   62.80
 N        5      0     1     0    1.7618   50.86   23.52   29.29
 N        6      0     0     0    1.2873   11.54   45.67   42.03
 H        9      0     1     0    2.4158   55.35   33.23    8.69
 H       10      0     0     0    1.8118   29.01   58.33   11.62
 H       13      0     1     0    2.4095   34.26   16.71   50.79
 H       14      0     0     0    2.0920    6.79   25.81   63.18
 H       11      0     1     1    2.2277   20.91   33.84   48.59
 H       12      0     0     1    2.9230   40.65   29.93   34.86
 H       15      0     1     0    2.7964   30.66   42.01   32.71
 H       16      0     0     0    3.6161   44.51   35.30   24.70
 H       13      0     1     1    3.2024   25.06   12.50   61.60
 H       14      0     0     1    2.9709    4.78   17.85   71.48

 **********
 ATTRACTORS OF THE UNIQUE PAIRS OF GRAD(LAP) TRAJ. ORIGINATING AT (3,-1) CP
 **********

 ATTRACTOR CP TYPE              :  (3,-3)
 COORD(AU)  (X  Y  Z)           : -1.2006E-17  5.2582E+00  4.3967E+00
 COORD FRACT. CONV. CELL        : -1.1417E-18  5.0000E-01  4.9671E-01
 PROPERTIES (-LAP,GLAP,RHO)     :  1.8598E+00  2.1817E-14  5.9501E-01
 TRAJECTORY LENGTH(ANG)         :  9.6012E-01
 INTEGRATION STEPS              :      33

 CLUSTER OF ATOMS AROUND THE TERMINUS OF THE PATH 
 NEW  OLD   CELL  AT. NU.         COORD.(AU)             DISTANCE (ANG)
     1       3       0     0     1    8        0.000   5.258   5.269          0.462
     2       1       0     0     0    6        0.000   5.258   2.886          0.800
     3       5       0     1     0    7        1.534   6.792   1.563          1.889
     4       6       0     0     0    7       -1.534   3.724   1.563          1.889


 ATTRACTOR CP TYPE              :  (3,-3)
 COORD(AU)  (X  Y  Z)           : -9.2851E-01  4.3297E+00  2.0760E+00
 COORD FRACT. CONV. CELL        : -8.8292E-02  4.1171E-01  2.3454E-01
 PROPERTIES (-LAP,GLAP,RHO)     :  1.5835E+00  3.0953E-15  4.3560E-01
 TRAJECTORY LENGTH(ANG)         :  9.3116E-01
 INTEGRATION STEPS              :      34

 CLUSTER OF ATOMS AROUND THE TERMINUS OF THE PATH 
 NEW  OLD   CELL  AT. NU.         COORD.(AU)             DISTANCE (ANG)
     1       6       0     0     0    7       -1.534   3.724   1.563          0.528
     2       1       0     0     0    6        0.000   5.258   2.886          0.816
     3      14       0     0     0    1       -1.515   3.743  -0.336          1.350
     4      10       0     0     0    1       -2.708   2.550   2.502          1.351



 TTRAJ (ANG) ; RAB ; (TTRAJ/RAB):  1.8913E+00  1.4110E+00  1.3404E+00

 CP N.     17   VSCC OF NON-EQUIV. ATOM      1 C 
 *********

 CP TYPE                        :  (3,-1)
 COORD(AU)  (X  Y  Z)           : -1.4268E+00  5.9392E+00  2.4890E+00
 COORD FRACT. CONV. CELL        : -1.3567E-01 -4.3524E-01  2.8120E-01
 PROPERTIES (-LAP,GLAP,RHO)     : -1.3210E-01  1.5021E-11  5.6056E-02

 SPECTRAL DECOMP. OF THE HESSIAN OF -LAP(RHO)

 EIGENVALUES (L1 L2 L3)         : -2.7414E-01 -1.3412E-01  8.3959E-01
 EIGENVECTORS                   :  4.1899E-01 -5.0262E-01  7.5619E-01
                                   5.6441E-01 -5.0821E-01 -6.5052E-01
                                   7.1126E-01  6.9936E-01  7.0751E-02


 VECTORS FROM NUCLEI TO CP (LENGTHS AND ANGLES MADE WITH PROJ. ONTO YZ,XZ,XY)


 SYM OLD    CELL      RX(ANG)    YZ      XZ      XY
 C        1      0     0     0    0.8626   61.09   24.70   14.08
 O        3      0     0     1    1.6925   26.49   12.30   60.37
 N        5      0     1     0    1.7027   66.96   15.38   16.72
 N        6      0     0     0    1.2719    2.56   67.18   22.66
 H        9      0     1     0    2.4368   63.89   26.11    0.17
 H       10      0     0     0    1.9173   20.71   69.29    0.21
 H       13      0     1     0    2.2033   44.96   11.56   42.73
 H       14      0     0     0    1.8944    1.42   37.85   52.12
 H       11      0     1     1    2.3461   14.68   24.93   60.54
 H       12      0     0     1    3.3949   38.31   30.24   36.99
 H       15      0     1     0    2.3291   31.75   44.08   29.28
 H       16      0     0     0    3.7764   46.42   38.31   17.56
 H       13      0     1     1    3.5760   25.81    7.09   63.09
 H       14      0     0     1    3.3944    0.79   20.02   69.96

 **********
 ATTRACTORS OF THE UNIQUE PAIRS OF GRAD(LAP) TRAJ. ORIGINATING AT (3,-1) CP
 **********

 ATTRACTOR CP TYPE              :  (3,-3)
 COORD(AU)  (X  Y  Z)           : -9.2851E-01  4.3297E+00  2.0760E+00
 COORD FRACT. CONV. CELL        : -8.8292E-02  4.1171E-01  2.3454E-01
 PROPERTIES (-LAP,GLAP,RHO)     :  1.5835E+00  1.9584E-15  4.3560E-01
 TRAJECTORY LENGTH(ANG)         :  1.0294E+00
 INTEGRATION STEPS              :      30

 CLUSTER OF ATOMS AROUND THE TERMINUS OF THE PATH 
 NEW  OLD   CELL  AT. NU.         COORD.(AU)             DISTANCE (ANG)
     1       6       0     0     0    7       -1.534   3.724   1.563          0.528
     2       1       0     0     0    6        0.000   5.258   2.886          0.816
     3      14       0     0     0    1       -1.515   3.743  -0.336          1.350
     4      10       0     0     0    1       -2.708   2.550   2.502          1.351


 CP N.     18
**********

 ATTRACTOR CP TYPE              :  (3,-3)
 COORD(AU)  (X  Y  Z)           : -5.2582E+00  5.2582E+00  4.4257E+00
 COORD FRACT. CONV. CELL        : -5.0000E-01 -5.0000E-01 -5.0000E-01
 PROPERTIES (-LAP,GLAP,RHO)     : -4.2340E-04  2.8427E-17  4.1312E-05
 TRAJECTORY LENGTH(ANG)         :  3.2182E+00
 INTEGRATION STEPS              :      53

 CLUSTER OF ATOMS AROUND THE TERMINUS OF THE PATH 
 NEW  OLD   CELL  AT. NU.         COORD.(AU)             DISTANCE (ANG)
     1      11       0     1     1    1       -2.550   7.808   6.349          2.216
     2       9      -1     1     0    1       -7.808   7.966   2.502          2.216
     3      10       0     0     0    1       -2.708   2.550   2.502          2.216
     4      12      -1     0     1    1       -7.966   2.708   6.349          2.216



 TTRAJ (ANG) ; RAB ; (TTRAJ/RAB):  4.2476E+00  2.6527E+00  1.6012E+00

 CP N.     19   VSCC OF NON-EQUIV. ATOM      1 C 
 *********

 CP TYPE                        :  (3,+1)
 COORD(AU)  (X  Y  Z)           : -6.7132E-01  4.5868E+00  3.3613E+00
 COORD FRACT. CONV. CELL        : -6.3836E-02  4.3616E-01  3.7975E-01
 PROPERTIES (-LAP,GLAP,RHO)     : -2.2897E-01  1.5549E-15  1.7269E-01

 SPECTRAL DECOMP. OF THE HESSIAN OF -LAP(RHO)

 EIGENVALUES (L1 L2 L3)         : -5.0398E+00  6.0780E-01  2.5324E+00
 EIGENVECTORS                   :  6.4924E-01  7.0711E-01  2.8016E-01
                                   6.4924E-01 -7.0711E-01  2.8016E-01
                                  -3.9620E-01 -1.5657E-15  9.1816E-01


 VECTORS FROM NUCLEI TO CP (LENGTHS AND ANGLES MADE WITH PROJ. ONTO YZ,XZ,XY)


 SYM OLD    CELL      RX(ANG)    YZ      XZ      XY
 C        1      0     0     0    0.5619   39.21   39.21   26.62
 O        3      0     0     1    1.1277   18.36   18.36   63.55
 N        5      0     1     0    1.9053   37.78   37.78   29.96
 N        6      0     0     0    1.1500   23.40   23.40   55.83
 H        9      0     1     0    2.5695   44.10   44.10   10.19
 H       10      0     0     0    1.5905   42.66   42.66   16.61
 H       13      0     1     0    2.5509   26.98   26.98   50.09
 H       14      0     0     0    2.0562   12.55   12.55   72.11
 H       11      0     1     1    2.5288   23.15   42.39   38.70
 H       12      0     0     1    2.5288   42.39   23.15   38.70
 H       15      0     1     0    3.2650   29.85   45.68   29.36
 H       16      0     0     0    3.2650   45.68   29.85   29.36
 H       13      0     1     1    3.1806   21.34   21.34   59.03
 H       14      0     0     1    2.7995    9.18    9.18   76.96

 CP N.     20   VSCC OF NON-EQUIV. ATOM      1 C 
 *********

 CP TYPE                        :  (3,-1)
 COORD(AU)  (X  Y  Z)           :  2.0589E-01  4.2104E+00  3.1918E+00
 COORD FRACT. CONV. CELL        :  1.9578E-02  4.0036E-01  3.6059E-01
 PROPERTIES (-LAP,GLAP,RHO)     : -1.1964E-01  3.7712E-13  1.3126E-01

 SPECTRAL DECOMP. OF THE HESSIAN OF -LAP(RHO)

 EIGENVALUES (L1 L2 L3)         : -3.5990E+00 -4.1033E-01  1.7021E+00
 EIGENVECTORS                   :  7.8014E-02  9.5343E-01  2.9134E-01
                                  -9.4526E-01 -2.2141E-02  3.2558E-01
                                   3.1687E-01 -3.0079E-01  8.9951E-01


 VECTORS FROM NUCLEI TO CP (LENGTHS AND ANGLES MADE WITH PROJ. ONTO YZ,XZ,XY)


 SYM OLD    CELL      RX(ANG)    YZ      XZ      XY
 C        1      0     0     0    0.5878   10.68   70.60   16.00
 O        3      0     0     1    1.2361    5.06   26.65   62.80
 N        5      0     1     0    1.7618   23.52   50.86   29.29
 N        6      0     0     0    1.2873   45.67   11.54   42.03
 H        9      0     1     0    2.4158   33.23   55.35    8.69
 H       10      0     0     0    1.8118   58.33   29.01   11.62
 H       13      0     1     0    2.4095   16.71   34.26   50.79
 H       14      0     0     0    2.0920   25.81    6.79   63.18
 H       11      0     1     1    2.9230   29.93   40.65   34.86
 H       12      0     0     1    2.2277   33.84   20.91   48.59
 H       15      0     1     0    3.6161   35.30   44.51   24.70
 H       16      0     0     0    2.7964   42.01   30.66   32.71
 H       13      0     1     1    3.2024   12.50   25.06   61.60
 H       14      0     0     1    2.9709   17.85    4.78   71.48

 **********
 ATTRACTORS OF THE UNIQUE PAIRS OF GRAD(LAP) TRAJ. ORIGINATING AT (3,-1) CP
 **********

 ATTRACTOR CP TYPE              :  (3,-3)
 COORD(AU)  (X  Y  Z)           :  1.8952E-17  5.2582E+00  4.3967E+00
 COORD FRACT. CONV. CELL        :  1.8021E-18  5.0000E-01  4.9671E-01
 PROPERTIES (-LAP,GLAP,RHO)     :  1.8598E+00  2.1844E-14  5.9501E-01
 TRAJECTORY LENGTH(ANG)         :  9.6012E-01
 INTEGRATION STEPS              :      33

 CLUSTER OF ATOMS AROUND THE TERMINUS OF THE PATH 
 NEW  OLD   CELL  AT. NU.         COORD.(AU)             DISTANCE (ANG)
     1       3       0     0     1    8        0.000   5.258   5.269          0.462
     2       1       0     0     0    6        0.000   5.258   2.886          0.800
     3       5       0     1     0    7        1.534   6.792   1.563          1.889
     4       6       0     0     0    7       -1.534   3.724   1.563          1.889


 ATTRACTOR CP TYPE              :  (3,-3)
 COORD(AU)  (X  Y  Z)           : -9.2851E-01  4.3297E+00  2.0760E+00
 COORD FRACT. CONV. CELL        : -8.8292E-02  4.1171E-01  2.3454E-01
 PROPERTIES (-LAP,GLAP,RHO)     :  1.5835E+00  3.0953E-15  4.3560E-01
 TRAJECTORY LENGTH(ANG)         :  9.3116E-01
 INTEGRATION STEPS              :      34

 CLUSTER OF ATOMS AROUND THE TERMINUS OF THE PATH 
 NEW  OLD   CELL  AT. NU.         COORD.(AU)             DISTANCE (ANG)
     1       6       0     0     0    7       -1.534   3.724   1.563          0.528
     2       1       0     0     0    6        0.000   5.258   2.886          0.816
     3      14       0     0     0    1       -1.515   3.743  -0.336          1.350
     4      10       0     0     0    1       -2.708   2.550   2.502          1.351



 TTRAJ (ANG) ; RAB ; (TTRAJ/RAB):  1.8913E+00  1.4110E+00  1.3404E+00

 CP N.     21   VSCC OF NON-EQUIV. ATOM      1 C 
 *********

 CP TYPE                        :  (3,-1)
 COORD(AU)  (X  Y  Z)           :  6.8107E-01  3.8314E+00  2.4890E+00
 COORD FRACT. CONV. CELL        :  6.4763E-02  3.6433E-01  2.8120E-01
 PROPERTIES (-LAP,GLAP,RHO)     : -1.3210E-01  1.6940E-16  5.6056E-02

 SPECTRAL DECOMP. OF THE HESSIAN OF -LAP(RHO)

 EIGENVALUES (L1 L2 L3)         : -2.7414E-01 -1.3412E-01  8.3959E-01
 EIGENVECTORS                   :  5.6441E-01  5.0821E-01  6.5052E-01
                                   4.1899E-01  5.0262E-01 -7.5619E-01
                                   7.1126E-01 -6.9936E-01 -7.0751E-02


 VECTORS FROM NUCLEI TO CP (LENGTHS AND ANGLES MADE WITH PROJ. ONTO YZ,XZ,XY)


 SYM OLD    CELL      RX(ANG)    YZ      XZ      XY
 C        1      0     0     0    0.8626   24.70   61.09   14.08
 O        3      0     0     1    1.6925   12.30   26.49   60.37
 N        5      0     1     0    1.7027   15.38   66.96   16.72
 N        6      0     0     0    1.2719   67.18    2.56   22.66
 H        9      0     1     0    2.4368   26.11   63.89    0.17
 H       10      0     0     0    1.9173   69.29   20.71    0.21
 H       13      0     1     0    2.2033   11.56   44.96   42.73
 H       14      0     0     0    1.8944   37.85    1.42   52.12
 H       11      0     1     1    3.3949   30.24   38.31   36.99
 H       12      0     0     1    2.3461   24.93   14.68   60.54
 H       15      0     1     0    3.7764   38.31   46.42   17.56
 H       16      0     0     0    2.3291   44.08   31.75   29.28
 H       13      0     1     1    3.5760    7.09   25.81   63.09
 H       14      0     0     1    3.3944   20.02    0.79   69.96

 **********
 ATTRACTORS OF THE UNIQUE PAIRS OF GRAD(LAP) TRAJ. ORIGINATING AT (3,-1) CP
 **********

 CP N.     22
**********

 ATTRACTOR CP TYPE              :  (3,-3)
 COORD(AU)  (X  Y  Z)           :  1.6675E-14  7.8947E-15  4.4257E+00
 COORD FRACT. CONV. CELL        :  1.5856E-15  7.5071E-16 -5.0000E-01
 PROPERTIES (-LAP,GLAP,RHO)     : -4.2340E-04  2.8503E-17  4.1312E-05
 TRAJECTORY LENGTH(ANG)         :  3.2182E+00
 INTEGRATION STEPS              :      53

 CLUSTER OF ATOMS AROUND THE TERMINUS OF THE PATH 
 NEW  OLD   CELL  AT. NU.         COORD.(AU)             DISTANCE (ANG)
     1      12       0     0     1    1        2.550   2.708   6.349          2.216
     2       9       0     0     0    1        2.708  -2.550   2.502          2.216
     3      10       0     0     0    1       -2.708   2.550   2.502          2.216
     4      11       0     0     1    1       -2.550  -2.708   6.349          2.216


 ATTRACTOR CP TYPE              :  (3,-3)
 COORD(AU)  (X  Y  Z)           : -9.2851E-01  4.3297E+00  2.0760E+00
 COORD FRACT. CONV. CELL        : -8.8292E-02  4.1171E-01  2.3454E-01
 PROPERTIES (-LAP,GLAP,RHO)     :  1.5835E+00  3.0953E-15  4.3560E-01
 TRAJECTORY LENGTH(ANG)         :  1.0294E+00
 INTEGRATION STEPS              :      30

 CLUSTER OF ATOMS AROUND THE TERMINUS OF THE PATH 
 NEW  OLD   CELL  AT. NU.         COORD.(AU)             DISTANCE (ANG)
     1       6       0     0     0    7       -1.534   3.724   1.563          0.528
     2       1       0     0     0    6        0.000   5.258   2.886          0.816
     3      14       0     0     0    1       -1.515   3.743  -0.336          1.350
     4      10       0     0     0    1       -2.708   2.550   2.502          1.351



 TTRAJ (ANG) ; RAB ; (TTRAJ/RAB):  4.2476E+00  2.6527E+00  1.6012E+00

 CP N.     23   VSCC OF NON-EQUIV. ATOM      1 C 
 *********

 CP TYPE                        :  (3,+1)
 COORD(AU)  (X  Y  Z)           :  1.0285E+00  4.2297E+00  2.4012E+00
 COORD FRACT. CONV. CELL        :  9.7799E-02  4.0220E-01  2.7128E-01
 PROPERTIES (-LAP,GLAP,RHO)     : -1.4082E-01  1.3005E-11  5.6390E-02

 SPECTRAL DECOMP. OF THE HESSIAN OF -LAP(RHO)

 EIGENVALUES (L1 L2 L3)         : -1.7707E-01  1.5720E-01  6.7766E-01
 EIGENVECTORS                   :  6.3163E-02 -7.0711E-01  7.0428E-01
                                  -6.3163E-02 -7.0711E-01 -7.0428E-01
                                   9.9600E-01 -6.2156E-11 -8.9326E-02


 VECTORS FROM NUCLEI TO CP (LENGTHS AND ANGLES MADE WITH PROJ. ONTO YZ,XZ,XY)


 SYM OLD    CELL      RX(ANG)    YZ      XZ      XY
 C        1      0     0     0    0.8113   42.14   42.14   18.42
 O        3      0     0     1    1.7017   18.65   18.65   63.11
 N        5      0     1     0    1.4517   10.63   69.10   17.79
 N        6      0     0     0    1.4517   69.10   10.63   17.79
 H        9      0     1     0    2.1685   24.20   65.76    1.41
 H       10      0     0     0    2.1685   65.76   24.20    1.41
 H       13      0     1     0    1.9943    7.42   42.46   46.59
 H       14      0     0     0    1.9943   42.46    7.42   46.59
 H       11      0     1     1    3.3967   33.89   33.89   37.96
 H       12      0     0     1    2.3794   19.78   19.78   61.41
 H       15      0     1     0    3.7341   42.54   42.54   17.01
 H       16      0     0     0    2.3065   38.52   38.52   28.28
 H       13      0     1     1    3.5137    4.21   22.53   67.04
 H       14      0     0     1    3.5137   22.53    4.21   67.04

 CP N.     24   VSCC OF NON-EQUIV. ATOM      1 C 
 *********

 CP TYPE                        :  (3,+1)
 COORD(AU)  (X  Y  Z)           :  8.5462E-01  4.4035E+00  2.9651E+00
 COORD FRACT. CONV. CELL        :  8.1266E-02  4.1873E-01  3.3499E-01
 PROPERTIES (-LAP,GLAP,RHO)     : -1.5634E-01  6.6512E-16  9.0089E-02

 SPECTRAL DECOMP. OF THE HESSIAN OF -LAP(RHO)

 EIGENVALUES (L1 L2 L3)         : -8.5071E-01  3.3006E-01  6.3876E-01
 EIGENVECTORS                   :  6.9731E-01 -7.0711E-01 -1.1732E-01
                                  -6.9731E-01 -7.0711E-01  1.1732E-01
                                   1.6591E-01 -3.7838E-15  9.8614E-01


 VECTORS FROM NUCLEI TO CP (LENGTHS AND ANGLES MADE WITH PROJ. ONTO YZ,XZ,XY)


 SYM OLD    CELL      RX(ANG)    YZ      XZ      XY
 C        1      0     0     0    0.6410   44.88   44.88    3.77
 O        3      0     0     1    1.3769   19.18   19.18   62.32
 N        5      0     1     0    1.5093   13.79   56.89   29.44
 N        6      0     0     0    1.5093   56.89   13.79   29.44
 H        9      0     1     0    2.1391   27.29   61.80    6.57
 H       10      0     0     0    2.1391   61.80   27.29    6.57
 H       13      0     1     0    2.1789    9.23   35.14   53.31
 H       14      0     0     0    2.1789   35.14    9.23   53.31
 H       11      0     1     1    3.1144   35.35   35.35   35.10
 H       12      0     0     1    2.1948   24.13   24.13   54.68
 H       15      0     1     0    3.7111   40.96   40.96   22.01
 H       16      0     0     0    2.5704   36.48   36.48   32.77
 H       13      0     1     1    3.2126    6.25   22.98   66.09
 H       14      0     0     1    3.2126   22.98    6.25   66.09

 NON-EQUIV. ATOM C      1  NUMBER OF CPS FOUND: 24


      ********** C R I T I C A L  P O I N T S  F O U N D **********


   X(AU)   Y(AU)   Z(AU)    TYPE     -LAP      RHO    L1(V1)   L2(V2)   L3(V3)

 *******************************************************************************

   1.048   5.052   3.192  (3,-1)   -0.120    0.131    -3.599   -0.410    1.702

 ( C      1       0      0      0   1.111 AU )        -0.945   -0.022    0.326
                                                       0.078    0.953    0.291
                                                      -0.317    0.301   -0.900

   0.929   6.187   2.076  (3,-3)    1.583    0.436   -12.819  -10.916   -5.442

 ( N      5       0      1      0   0.999 AU )         0.625   -0.330    0.707
                                                       0.625   -0.330   -0.707
                                                      -0.467   -0.884    0.000

   0.000   5.258   4.397  (3,-3)    1.860    0.595   -40.770   -8.829   -7.528

 ( O      3       0      0      1   0.873 AU )         0.000   -0.707    0.707
                                                       0.000   -0.707   -0.707
                                                       1.000    0.000    0.000

   0.630   4.628   2.224  (3,-1)   -0.088    0.133    -3.719   -0.551    1.465

 ( C      1       0      0      0   1.109 AU )        -0.506    0.494    0.707
                                                       0.506   -0.494    0.707
                                                       0.699    0.716   -0.000

  -0.929   4.330   2.076  (3,-3)    1.583    0.436   -12.819  -10.916   -5.442

 ( N      6       0      0      0   0.999 AU )         0.625    0.330    0.707
                                                       0.625    0.330   -0.707
                                                       0.467   -0.884   -0.000

   1.427   4.577   2.489  (3,-1)   -0.132    0.056    -0.274   -0.134    0.840

 ( C      1       0      0      0   1.630 AU )        -0.419   -0.503    0.756
                                                      -0.564   -0.508   -0.651
                                                       0.711   -0.699   -0.071

   5.258   5.258   4.426  (3,-3)   -0.000    0.000    -0.002   -0.002   -0.001

 ( H     12       0      0      1   4.188 AU )         0.508   -0.861    0.000
                                                       0.861    0.508    0.000
                                                      -0.000   -0.000    1.000

  -0.000   5.258   1.839  (3,+1)   -0.229    0.177    -5.475    0.780    3.059

 ( C      1       0      0      0   1.047 AU )         0.000   -0.707    0.707
                                                       0.000    0.707    0.707
                                                       1.000   -0.000   -0.000

   0.671   5.929   3.361  (3,+1)   -0.229    0.173    -5.040    0.608    2.532

 ( C      1       0      0      0   1.062 AU )         0.649    0.707   -0.280
                                                       0.649   -0.707   -0.280
                                                       0.396    0.000    0.918

  -0.630   5.888   2.224  (3,-1)   -0.088    0.133    -3.719   -0.551    1.465

 ( C      1       0      0      0   1.109 AU )        -0.506   -0.494    0.707
                                                       0.506    0.494    0.707
                                                      -0.699    0.716   -0.000

  -0.206   6.306   3.192  (3,-1)   -0.120    0.131    -3.599   -0.410    1.702

 ( C      1       0      0      0   1.111 AU )        -0.078    0.953    0.291
                                                       0.945   -0.022    0.326
                                                       0.317    0.301   -0.900

  -0.681   6.685   2.489  (3,-1)   -0.132    0.056    -0.274   -0.134    0.840

 ( C      1       0      0      0   1.630 AU )         0.564   -0.508    0.651
                                                       0.419   -0.503   -0.756
                                                      -0.711   -0.699    0.071

  -0.000  10.516   4.426  (3,-3)   -0.000    0.000    -0.002   -0.002   -0.001

 ( H     11       0      1      1   4.188 AU )         0.619    0.785    0.000
                                                       0.785   -0.619    0.000
                                                      -0.000   -0.000    1.000

  -1.028   6.287   2.401  (3,+1)   -0.141    0.056    -0.177    0.157    0.678

 ( C      1       0      0      0   1.533 AU )        -0.063   -0.707    0.704
                                                       0.063   -0.707   -0.704
                                                       0.996    0.000    0.089

  -0.855   6.113   2.965  (3,+1)   -0.156    0.090    -0.851    0.330    0.639

 ( C      1       0      0      0   1.211 AU )         0.697   -0.707    0.117
                                                      -0.697   -0.707   -0.117
                                                      -0.166   -0.000    0.986

  -1.048   5.464   3.192  (3,-1)   -0.120    0.131    -3.599   -0.410    1.702

 ( C      1       0      0      0   1.111 AU )        -0.945    0.022    0.326
                                                       0.078   -0.953    0.291
                                                       0.317    0.301    0.900

  -1.427   5.939   2.489  (3,-1)   -0.132    0.056    -0.274   -0.134    0.840

 ( C      1       0      0      0   1.630 AU )         0.419   -0.503    0.756
                                                       0.564   -0.508   -0.651
                                                       0.711    0.699    0.071

  -5.258   5.258   4.426  (3,-3)   -0.000    0.000    -0.002   -0.002   -0.001

 ( H     11       0      1      1   4.188 AU )        -0.456   -0.890    0.000
                                                      -0.890    0.456    0.000
                                                      -0.000    0.000   -1.000

  -0.671   4.587   3.361  (3,+1)   -0.229    0.173    -5.040    0.608    2.532

 ( C      1       0      0      0   1.062 AU )         0.649    0.707    0.280
                                                       0.649   -0.707    0.280
                                                      -0.396   -0.000    0.918

   0.206   4.210   3.192  (3,-1)   -0.120    0.131    -3.599   -0.410    1.702

 ( C      1       0      0      0   1.111 AU )         0.078    0.953    0.291
                                                      -0.945   -0.022    0.326
                                                       0.317   -0.301    0.900

   0.681   3.831   2.489  (3,-1)   -0.132    0.056    -0.274   -0.134    0.840

 ( C      1       0      0      0   1.630 AU )         0.564    0.508    0.651
                                                       0.419    0.503   -0.756
                                                       0.711   -0.699   -0.071

   0.000   0.000   4.426  (3,-3)   -0.000    0.000    -0.002   -0.002   -0.001

 ( H     12       0      0      1   4.188 AU )         0.867   -0.498    0.000
                                                       0.498    0.867    0.000
                                                       0.000   -0.000   -1.000

   1.028   4.230   2.401  (3,+1)   -0.141    0.056    -0.177    0.157    0.678

 ( C      1       0      0      0   1.533 AU )         0.063   -0.707    0.704
                                                      -0.063   -0.707   -0.704
                                                       0.996   -0.000   -0.089

   0.855   4.404   2.965  (3,+1)   -0.156    0.090    -0.851    0.330    0.639

 ( C      1       0      0      0   1.211 AU )         0.697   -0.707   -0.117
                                                      -0.697   -0.707    0.117
                                                       0.166   -0.000    0.986
 *******************************************************************************


 ****** CP SEARCH FOR NON-EQUIVALENT ATOM      2 O  ******

 SPHERE RADIUS (ANG)            :  3.4926E-01

 CP N.      1   VSCC OF NON-EQUIV. ATOM      2 O 
 *********

 CP TYPE                        :  (3,+1)
 COORD(AU)  (X  Y  Z)           : -3.8248E-17  5.2582E+00 -2.8735E+00
 COORD FRACT. CONV. CELL        : -3.6370E-18  5.0000E-01 -3.2463E-01
 PROPERTIES (-LAP,GLAP,RHO)     :  1.7956E+00  8.4377E-14  7.1631E-01

 SPECTRAL DECOMP. OF THE HESSIAN OF -LAP(RHO)

 EIGENVALUES (L1 L2 L3)         : -1.1434E+02  2.0827E+00  7.4433E+00
 EIGENVECTORS                   :  0.0000E+00  7.0711E-01  7.0711E-01
                                  -2.5047E-15 -7.0711E-01  7.0711E-01
                                   1.0000E+00 -1.7711E-15  1.7711E-15


 VECTORS FROM NUCLEI TO CP (LENGTHS AND ANGLES MADE WITH PROJ. ONTO YZ,XZ,XY)


 SYM OLD    CELL      RX(ANG)    YZ      XZ      XY
 O        3      0     0     0    0.3750    0.00    0.00   90.00
 C        1      0     0    -1    1.6364    0.00    0.00   90.00
 H       11      0     1     0    1.9186   44.70   44.70    5.88
 H       12      0     0     0    1.9186   44.70   44.70    5.88
 H       13      0     1     0    1.7575   27.15   27.15   49.81
 H       14      0     0     0    1.7575   27.15   27.15   49.81
 N        5      0     1    -1    2.6032   18.17   18.17   63.83
 N        6      0     0    -1    2.6032   18.17   18.17   63.83
 H        9      0     1    -1    2.7367   31.57   31.57   42.23
 H       10      0     0    -1    2.7367   31.57   31.57   42.23
 N        5      0     1     0    2.6135   18.10   18.10   63.94
 N        6      0     0     0    2.6135   18.10   18.10   63.94
 N        7      0     1     0    2.8718   43.33   43.33   13.97
 N        8      0     0     0    2.8718   43.33   43.33   13.97

 CP N.      2   VSCC OF NON-EQUIV. ATOM      2 O 
 *********

 CP TYPE                        :  (3,-3)
 COORD(AU)  (X  Y  Z)           :  4.5325E-01  5.7114E+00 -3.3791E+00
 COORD FRACT. CONV. CELL        :  4.3099E-02 -4.5690E-01 -3.8175E-01
 PROPERTIES (-LAP,GLAP,RHO)     :  3.1639E+00  2.7220E-14  8.6474E-01

 SPECTRAL DECOMP. OF THE HESSIAN OF -LAP(RHO)

 EIGENVALUES (L1 L2 L3)         : -1.2504E+02 -1.1627E+01 -5.9690E+00
 EIGENVECTORS                   :  6.7113E-01  2.2268E-01 -7.0711E-01
                                   6.7113E-01  2.2268E-01  7.0711E-01
                                   3.1492E-01 -9.4912E-01  6.6951E-15


 VECTORS FROM NUCLEI TO CP (LENGTHS AND ANGLES MADE WITH PROJ. ONTO YZ,XZ,XY)


 SYM OLD    CELL      RX(ANG)    YZ      XZ      XY
 O        3      0     0     0    0.3558   42.38   42.38   17.58
 C        1      0     0    -1    1.4103    9.79    9.79   76.08
 H       11      0     1     0    1.9932   52.88   33.83   13.46
 H       12      0     0     0    1.9932   33.83   52.88   13.46
 H       13      0     1     0    1.7957   18.24   18.24   63.73
 H       14      0     0     0    2.1825   28.51   28.51   47.54
 N        5      0     1    -1    2.2213   14.92   14.92   68.64
 N        6      0     0    -1    2.5479   24.38   24.38   54.28
 H        9      0     1    -1    2.3059   31.16   31.16   42.97
 H       10      0     0    -1    2.8402   36.08   36.08   33.60
 N        5      0     1     0    2.7376   12.06   12.06   72.81
 N        6      0     0     0    3.0087   20.46   20.46   60.37
 N        7      0     1     0    2.9673   48.15   35.68   18.90
 N        8      0     0     0    2.9673   35.68   48.15   18.90

 CP N.      3   VSCC OF NON-EQUIV. ATOM      2 O 
 *********

 CP TYPE                        :  (3,-1)
 COORD(AU)  (X  Y  Z)           :  4.4714E-01  4.8110E+00 -3.2579E+00
 COORD FRACT. CONV. CELL        :  4.2519E-02  4.5748E-01 -3.6806E-01
 PROPERTIES (-LAP,GLAP,RHO)     :  2.0978E+00  5.5354E-14  7.3393E-01

 SPECTRAL DECOMP. OF THE HESSIAN OF -LAP(RHO)

 EIGENVALUES (L1 L2 L3)         : -1.0101E+02 -3.4409E+00  4.5297E+00
 EIGENVECTORS                   :  6.1725E-01  3.4497E-01  7.0711E-01
                                  -6.1725E-01 -3.4497E-01  7.0711E-01
                                   4.8786E-01 -8.7292E-01  1.9955E-15


 VECTORS FROM NUCLEI TO CP (LENGTHS AND ANGLES MADE WITH PROJ. ONTO YZ,XZ,XY)


 SYM OLD    CELL      RX(ANG)    YZ      XZ      XY
 O        3      0     0     0    0.3761   38.99   38.99   27.15
 C        1      0     0    -1    1.4716    9.25    9.25   76.86
 H       11      0     1     0    2.2785   44.12   44.12   10.11
 H       12      0     0     0    1.6239   43.26   43.26   14.25
 H       13      0     1     0    1.9463   16.88   32.25   52.59
 H       14      0     0     0    1.9463   32.25   16.88   52.59
 N        5      0     1    -1    2.4453   13.61   25.39   60.72
 N        6      0     0    -1    2.4453   25.39   13.61   60.72
 H        9      0     1    -1    2.6258   27.10   39.48   38.53
 H       10      0     0    -1    2.6258   39.48   27.10   38.53
[...]
                                                      -0.846    0.533    0.000
                                                      -0.000    0.000   -1.000

   2.681  -2.577   2.481  (3,-3)    7.253    0.348  -161.662 -161.275 -148.216

 ( H      9       0      0      0   0.044 AU )        -0.343    0.707    0.618
                                                      -0.343   -0.707    0.618
                                                       0.875   -0.000    0.485

   2.870  -2.389   1.696  (3,+1)   -0.116    0.105    -1.737    0.096    1.355

 ( H      9       0      0      0   0.839 AU )         0.230    0.707    0.669
                                                       0.230   -0.707    0.669
                                                       0.946   -0.000   -0.325

   1.987  -2.058   2.483  (3,-1)   -0.084    0.098    -1.956   -0.072    0.622

 ( H      9       0      0      0   0.873 AU )        -0.956    0.293    0.032
                                                       0.151    0.393    0.907
                                                      -0.253   -0.872    0.420

   0.000   0.000   4.426  (3,-3)   -0.000    0.000    -0.002   -0.002   -0.001

 ( H     12       0      0      1   4.188 AU )         0.852   -0.523    0.000
                                                       0.523    0.852    0.000
                                                       0.000   -0.000   -1.000

   2.310  -2.948   3.128  (3,+1)   -0.110    0.104    -1.786    0.096    1.231

 ( H      9       0      0      0   0.841 AU )         0.687    0.707    0.166
                                                       0.687   -0.707    0.166
                                                      -0.235   -0.000    0.972

   2.314  -2.945   2.190  (3,-1)    1.372    0.362   -14.833  -13.720   28.057

 ( H      9       0      0      0   0.639 AU )        -0.347    0.707    0.616
                                                      -0.347   -0.707    0.616
                                                       0.871    0.000    0.491

   2.108  -3.150   2.023  (3,-3)    1.831    0.448   -21.498  -11.497   -8.136

 ( N      5       0      0      0   0.933 AU )         0.623    0.335   -0.707
                                                       0.623    0.335    0.707
                                                       0.473   -0.881   -0.000
 *******************************************************************************


 ****** CP SEARCH FOR NON-EQUIVALENT ATOM      5 H  ******

 SPHERE RADIUS (ANG)            :  3.8000E-01

 CP N.      1   VSCC OF NON-EQUIV. ATOM      5 H 
 *********

 CP TYPE                        :  (3,-1)
 COORD(AU)  (X  Y  Z)           :  1.5211E+00 -3.7371E+00  3.0378E-01
 COORD FRACT. CONV. CELL        :  1.4464E-01 -3.5536E-01  3.4319E-02
 PROPERTIES (-LAP,GLAP,RHO)     :  1.3994E+00  3.1277E-15  3.6582E-01

 SPECTRAL DECOMP. OF THE HESSIAN OF -LAP(RHO)

 EIGENVALUES (L1 L2 L3)         : -1.4983E+01 -1.3843E+01  2.7912E+01
 EIGENVECTORS                   : -7.0705E-01 -7.0711E-01  9.0798E-03
                                  -7.0705E-01  7.0711E-01  9.0798E-03
                                   1.2841E-02 -1.3230E-16  9.9992E-01


 VECTORS FROM NUCLEI TO CP (LENGTHS AND ANGLES MADE WITH PROJ. ONTO YZ,XZ,XY)


 SYM OLD    CELL      RX(ANG)    YZ      XZ      XY
 H       13      0     0     0    0.3388    0.51    0.51   89.28
 N        5      0     0     0    0.6665    0.60    0.60   89.15
 H        9      0     0     0    1.4637   25.41   25.41   52.64
 C        1      0    -1     0    1.7783   26.91   26.91   50.20
 O        3      0    -1     0    2.3504   20.03   20.03   61.03
 H       14      0    -1     0    2.2975   44.38   44.38    8.48
 N        6      0    -1     0    2.3817   42.75   42.75   16.25
 H       11      0     0     0    2.6727   53.72   11.76   33.75
 H       12      0    -1     0    2.6727   11.76   53.72   33.75

 **********
 ATTRACTORS OF THE UNIQUE PAIRS OF GRAD(LAP) TRAJ. ORIGINATING AT (3,-1) CP
 **********

 CP N.      2
**********

 ATTRACTOR CP TYPE              :  (3,-3)
 COORD(AU)  (X  Y  Z)           :  1.5252E+00 -3.7330E+00  6.2588E-01
 COORD FRACT. CONV. CELL        :  1.4503E-01 -3.5497E-01  7.0710E-02
 PROPERTIES (-LAP,GLAP,RHO)     :  1.8230E+00  3.4120E-15  4.4611E-01
 TRAJECTORY LENGTH(ANG)         :  1.7055E-01
 INTEGRATION STEPS              :      19

 CLUSTER OF ATOMS AROUND THE TERMINUS OF THE PATH 
 NEW  OLD   CELL  AT. NU.         COORD.(AU)             DISTANCE (ANG)
     1       5       0     0     0    7        1.534  -3.724   1.563          0.496
     2      13       0     0     0    1        1.515  -3.743  -0.336          0.509
     3       9       0     0     0    1        2.708  -2.550   2.502          1.330
     4       1       0    -1     0    6        0.000  -5.258   2.886          1.653


 CP N.      3
**********

 ATTRACTOR CP TYPE              :  (3,-3)
 COORD(AU)  (X  Y  Z)           :  1.5158E+00 -3.7423E+00 -2.9303E-01
 COORD FRACT. CONV. CELL        :  1.4414E-01 -3.5586E-01 -3.3105E-02
 PROPERTIES (-LAP,GLAP,RHO)     :  7.3810E+00  3.2246E-11  3.5335E-01
 TRAJECTORY LENGTH(ANG)         :  3.1584E-01
 INTEGRATION STEPS              :      19

 CLUSTER OF ATOMS AROUND THE TERMINUS OF THE PATH 
 NEW  OLD   CELL  AT. NU.         COORD.(AU)             DISTANCE (ANG)
     1      13       0     0     0    1        1.515  -3.743  -0.336          0.023
     2       5       0     0     0    7        1.534  -3.724   1.563          0.982
     3       9       0     0     0    1        2.708  -2.550   2.502          1.727
     4       1       0    -1     0    6        0.000  -5.258   2.886          2.029



 TTRAJ (ANG) ; RAB ; (TTRAJ/RAB):  4.8640E-01  4.8632E-01  1.0002E+00

 CP N.      4   VSCC OF NON-EQUIV. ATOM      5 H 
 *********

 CP TYPE                        :  (3,-1)
 COORD(AU)  (X  Y  Z)           :  2.1451E+00 -4.3267E+00 -1.8761E-01
 COORD FRACT. CONV. CELL        :  2.0398E-01 -4.1142E-01 -2.1196E-02
 PROPERTIES (-LAP,GLAP,RHO)     : -8.3692E-02  9.2857E-15  9.9905E-02

 SPECTRAL DECOMP. OF THE HESSIAN OF -LAP(RHO)

 EIGENVALUES (L1 L2 L3)         : -1.9732E+00 -7.4771E-02  6.5205E-01
 EIGENVECTORS                   :  5.8588E-01 -6.7200E-01 -4.5296E-01
                                  -5.2624E-01 -7.4053E-01  4.1796E-01
                                   6.1629E-01  6.5094E-03  7.8749E-01


 VECTORS FROM NUCLEI TO CP (LENGTHS AND ANGLES MADE WITH PROJ. ONTO YZ,XZ,XY)


 SYM OLD    CELL      RX(ANG)    YZ      XZ      XY
 H       13      0     0     0    0.4612   46.26   42.06    9.83
 N        5      0     0     0    1.0318   18.26   18.01   63.89
 H        9      0     0     0    1.7317    9.90   32.88   55.29
 C        1      0    -1     0    2.0436   33.74   13.96   52.73
 O        3      0    -1     0    2.1814   31.36   13.06   55.44
 H       14      0    -1     0    2.3313   56.19   33.74    1.93
 N        6      0    -1     0    2.5203   50.58   31.18   21.57
 H       11      0     0     0    2.8996   58.97   17.18   24.99
 H       12      0    -1     0    2.2228    5.53   55.98   33.44

 **********
 ATTRACTORS OF THE UNIQUE PAIRS OF GRAD(LAP) TRAJ. ORIGINATING AT (3,-1) CP
 **********

 ATTRACTOR CP TYPE              :  (3,-3)
 COORD(AU)  (X  Y  Z)           :  1.5158E+00 -3.7423E+00 -2.9303E-01
 COORD FRACT. CONV. CELL        :  1.4414E-01 -3.5586E-01 -3.3105E-02
 PROPERTIES (-LAP,GLAP,RHO)     :  7.3810E+00  1.5437E-11  3.5335E-01
 TRAJECTORY LENGTH(ANG)         :  5.3713E-01
 INTEGRATION STEPS              :      30

 CLUSTER OF ATOMS AROUND THE TERMINUS OF THE PATH 
 NEW  OLD   CELL  AT. NU.         COORD.(AU)             DISTANCE (ANG)
     1      13       0     0     0    1        1.515  -3.743  -0.336          0.023
     2       5       0     0     0    7        1.534  -3.724   1.563          0.982
     3       9       0     0     0    1        2.708  -2.550   2.502          1.727
     4       1       0    -1     0    6        0.000  -5.258   2.886          2.029


 CP N.      5
**********

 ATTRACTOR CP TYPE              :  (3,-3)
 COORD(AU)  (X  Y  Z)           :  5.2582E+00 -5.2582E+00 -4.4257E+00
 COORD FRACT. CONV. CELL        :  5.0000E-01 -5.0000E-01  5.0000E-01
 PROPERTIES (-LAP,GLAP,RHO)     : -4.2340E-04  2.5630E-16  4.1312E-05
 TRAJECTORY LENGTH(ANG)         :  2.9502E+00
 INTEGRATION STEPS              :      59

 CLUSTER OF ATOMS AROUND THE TERMINUS OF THE PATH 
 NEW  OLD   CELL  AT. NU.         COORD.(AU)             DISTANCE (ANG)
     1       9       0     0    -1    1        2.708  -2.550  -6.349          2.216
     2      12       0    -1     0    1        2.550  -7.808  -2.502          2.216
     3      11       1     0     0    1        7.966  -2.708  -2.502          2.216
     4      10       1    -1    -1    1        7.808  -7.966  -6.349          2.216



 TTRAJ (ANG) ; RAB ; (TTRAJ/RAB):  3.4873E+00  3.0574E+00  1.1406E+00

 CP N.      6   VSCC OF NON-EQUIV. ATOM      5 H 
 *********

 CP TYPE                        :  (3,+3)
 COORD(AU)  (X  Y  Z)           :  1.4902E+00 -3.7680E+00 -9.4975E-01
 COORD FRACT. CONV. CELL        :  1.4170E-01 -3.5830E-01 -1.0730E-01
 PROPERTIES (-LAP,GLAP,RHO)     : -2.9145E-01  4.9343E-15  7.2364E-02

 SPECTRAL DECOMP. OF THE HESSIAN OF -LAP(RHO)

 EIGENVALUES (L1 L2 L3)         :  4.2432E-01  4.9240E-01  1.4356E+01
 EIGENVECTORS                   :  7.0613E-01 -7.0711E-01  3.7179E-02
                                   7.0613E-01  7.0711E-01  3.7179E-02
                                  -5.2579E-02 -1.7120E-15  9.9862E-01


 VECTORS FROM NUCLEI TO CP (LENGTHS AND ANGLES MADE WITH PROJ. ONTO YZ,XZ,XY)


 SYM OLD    CELL      RX(ANG)    YZ      XZ      XY
 H       13      0     0     0    0.3251    2.35    2.35   86.67
 N        5      0     0     0    1.3302    1.01    1.01   88.58
 H        9      0     0     0    2.0415   18.40   18.40   63.49
 C        1      0    -1     0    2.3158   19.91   19.91   61.21
 O        3      0    -1     0    1.7844   26.23   26.23   51.32
 H       14      0    -1     0    2.2726   44.42   44.42    8.21
 N        6      0    -1     0    2.6252   37.57   37.57   30.43
 H       11      0     0     0    2.3582   65.05   13.76   20.39
 H       12      0    -1     0    2.3582   13.76   65.05   20.39

 CP N.      7   VSCC OF NON-EQUIV. ATOM      5 H 
 *********

 CP TYPE                        :  (3,+1)
 COORD(AU)  (X  Y  Z)           :  2.0939E+00 -3.1642E+00 -1.6198E-01
 COORD FRACT. CONV. CELL        :  1.9911E-01 -3.0089E-01 -1.8300E-02
 PROPERTIES (-LAP,GLAP,RHO)     : -1.1000E-01  7.9724E-11  1.0543E-01

 SPECTRAL DECOMP. OF THE HESSIAN OF -LAP(RHO)

 EIGENVALUES (L1 L2 L3)         : -1.7325E+00  8.4653E-02  1.3279E+00
 EIGENVECTORS                   : -4.8225E-01 -7.0711E-01 -5.1714E-01
                                  -4.8225E-01  7.0711E-01 -5.1714E-01
                                  -7.3135E-01  4.4501E-11  6.8201E-01


 VECTORS FROM NUCLEI TO CP (LENGTHS AND ANGLES MADE WITH PROJ. ONTO YZ,XZ,XY)


 SYM OLD    CELL      RX(ANG)    YZ      XZ      XY
 H       13      0     0     0    0.4427   43.75   43.75   12.03
 N        5      0     0     0    1.0044   17.15   17.15   65.36
 H        9      0     0     0    1.4829   12.66   12.66   71.95
 C        1      0    -1     0    2.2487   29.52   29.52   45.82
 O        3      0    -1     0    2.3940   27.57   27.57   49.11
 H       14      0    -1     0    2.7027   44.97   44.97    1.96
 N        6      0    -1     0    2.8647   42.09   42.09   18.58
 H       11      0     0     0    2.7626   62.82    5.01   26.63
 H       12      0    -1     0    2.7626    5.01   62.82   26.63

 CP N.      8   VSCC OF NON-EQUIV. ATOM      5 H 
 *********

 CP TYPE                        :  (3,-1)
 COORD(AU)  (X  Y  Z)           :  9.3149E-01 -3.1130E+00 -1.8761E-01
 COORD FRACT. CONV. CELL        :  8.8575E-02 -2.9602E-01 -2.1196E-02
 PROPERTIES (-LAP,GLAP,RHO)     : -8.3692E-02  9.3694E-12  9.9905E-02

 SPECTRAL DECOMP. OF THE HESSIAN OF -LAP(RHO)

 EIGENVALUES (L1 L2 L3)         : -1.9732E+00 -7.4771E-02  6.5205E-01
 EIGENVECTORS                   :  5.2624E-01 -7.4053E-01  4.1796E-01
                                  -5.8588E-01 -6.7200E-01 -4.5296E-01
                                  -6.1629E-01  6.5094E-03  7.8749E-01


 VECTORS FROM NUCLEI TO CP (LENGTHS AND ANGLES MADE WITH PROJ. ONTO YZ,XZ,XY)


 SYM OLD    CELL      RX(ANG)    YZ      XZ      XY
 H       13      0     0     0    0.4612   42.06   46.26    9.83
 N        5      0     0     0    1.0318   18.01   18.26   63.89
 H        9      0     0     0    1.7317   32.88    9.90   55.29
 C        1      0    -1     0    2.0436   13.96   33.74   52.73
 O        3      0    -1     0    2.1814   13.06   31.36   55.44
 H       14      0    -1     0    2.3313   33.74   56.19    1.93
 N        6      0    -1     0    2.5203   31.18   50.58   21.57
 H       11      0     0     0    2.2228   55.98    5.53   33.44
 H       12      0    -1     0    2.8996   17.18   58.97   24.99

 **********
 ATTRACTORS OF THE UNIQUE PAIRS OF GRAD(LAP) TRAJ. ORIGINATING AT (3,-1) CP
 **********

 ATTRACTOR CP TYPE              :  (3,-3)
 COORD(AU)  (X  Y  Z)           :  1.5158E+00 -3.7423E+00 -2.9303E-01
 COORD FRACT. CONV. CELL        :  1.4414E-01 -3.5586E-01 -3.3105E-02
 PROPERTIES (-LAP,GLAP,RHO)     :  7.3810E+00  1.5438E-11  3.5335E-01
 TRAJECTORY LENGTH(ANG)         :  5.3713E-01
 INTEGRATION STEPS              :      30

 CLUSTER OF ATOMS AROUND THE TERMINUS OF THE PATH 
 NEW  OLD   CELL  AT. NU.         COORD.(AU)             DISTANCE (ANG)
     1      13       0     0     0    1        1.515  -3.743  -0.336          0.023
     2       5       0     0     0    7        1.534  -3.724   1.563          0.982
     3       9       0     0     0    1        2.708  -2.550   2.502          1.727
     4       1       0    -1     0    6        0.000  -5.258   2.886          2.029


 CP N.      9
**********

 ATTRACTOR CP TYPE              :  (3,-3)
 COORD(AU)  (X  Y  Z)           :  7.0836E-14 -1.5124E-13 -4.4257E+00
 COORD FRACT. CONV. CELL        :  6.7358E-15 -1.4382E-14  5.0000E-01
 PROPERTIES (-LAP,GLAP,RHO)     : -4.2340E-04  2.5667E-16  4.1312E-05
 TRAJECTORY LENGTH(ANG)         :  2.9502E+00
 INTEGRATION STEPS              :      59

 CLUSTER OF ATOMS AROUND THE TERMINUS OF THE PATH 
 NEW  OLD   CELL  AT. NU.         COORD.(AU)             DISTANCE (ANG)
     1       9       0     0    -1    1        2.708  -2.550  -6.349          2.216
     2      11       0     0     0    1       -2.550  -2.708  -2.502          2.216
     3      12       0     0     0    1        2.550   2.708  -2.502          2.216
     4      10       0     0    -1    1       -2.708   2.550  -6.349          2.216



 TTRAJ (ANG) ; RAB ; (TTRAJ/RAB):  3.4873E+00  3.0574E+00  1.1406E+00

 CP N.     10   VSCC OF NON-EQUIV. ATOM      5 H 
 *********

 CP TYPE                        :  (3,+1)
 COORD(AU)  (X  Y  Z)           :  9.3606E-01 -4.3221E+00 -1.3700E-01
 COORD FRACT. CONV. CELL        :  8.9010E-02 -4.1099E-01 -1.5477E-02
 PROPERTIES (-LAP,GLAP,RHO)     : -1.1880E-01  4.9569E-14  1.0532E-01

 SPECTRAL DECOMP. OF THE HESSIAN OF -LAP(RHO)

 EIGENVALUES (L1 L2 L3)         : -1.8034E+00  1.1338E-01  1.2684E+00
 EIGENVECTORS                   : -4.7878E-01 -7.0711E-01  5.2036E-01
                                  -4.7878E-01  7.0711E-01  5.2036E-01
                                   7.3590E-01 -1.4514E-14  6.7709E-01


 VECTORS FROM NUCLEI TO CP (LENGTHS AND ANGLES MADE WITH PROJ. ONTO YZ,XZ,XY)


 SYM OLD    CELL      RX(ANG)    YZ      XZ      XY
 H       13      0     0     0    0.4462   43.40   43.40   13.68
 N        5      0     0     0    1.0049   18.36   18.36   63.54
 H        9      0     0     0    1.9259   29.13   29.13   46.49
 C        1      0    -1     0    1.7462   16.48   16.48   66.35
 O        3      0    -1     0    1.9531   14.69   14.69   68.98
 H       14      0    -1     0    1.8376   44.91   44.91    3.29
 N        6      0    -1     0    2.0561   39.48   39.48   25.95
 H       11      0     0     0    2.3874   50.60   20.96   31.62
 H       12      0    -1     0    2.3874   20.96   50.60   31.62

 NON-EQUIV. ATOM H      5  NUMBER OF CPS FOUND: 10


      ********** C R I T I C A L  P O I N T S  F O U N D **********


   X(AU)   Y(AU)   Z(AU)    TYPE     -LAP      RHO    L1(V1)   L2(V2)   L3(V3)

 *******************************************************************************

   1.521  -3.737   0.304  (3,-1)    1.399    0.366   -14.983  -13.843   27.912

 ( H     13       0      0      0   0.640 AU )        -0.707   -0.707    0.009
                                                      -0.707    0.707    0.009
                                                       0.013   -0.000    1.000

   1.525  -3.733   0.626  (3,-3)    1.823    0.446   -21.395  -11.390   -8.117

 ( N      5       0      0      0   0.937 AU )        -0.004   -0.707    0.707
                                                      -0.004   -0.707   -0.707
                                                       1.000   -0.005    0.000

   1.516  -3.742  -0.293  (3,-3)    7.381    0.353  -164.464 -164.071 -150.663

 ( H     13       0      0      0   0.043 AU )        -0.707   -0.707    0.004
                                                      -0.707    0.707    0.004
                                                       0.005   -0.000    1.000

   2.145  -4.327  -0.188  (3,-1)   -0.084    0.100    -1.973   -0.075    0.652

 ( H     13       0      0      0   0.872 AU )         0.586   -0.672   -0.453
                                                      -0.526   -0.741    0.418
                                                       0.616    0.007    0.787

   5.258  -5.258  -4.426  (3,-3)   -0.000    0.000    -0.002   -0.002   -0.001

 ( H      9       0      0     -1   4.188 AU )        -0.858   -0.514    0.000
                                                       0.514   -0.858   -0.000
                                                      -0.000   -0.000   -1.000

   1.490  -3.768  -0.950  (3,+3)   -0.291    0.072     0.424    0.492   14.356

 ( H     13       0      0      0   0.614 AU )         0.706   -0.707    0.037
                                                       0.706    0.707    0.037
                                                      -0.053   -0.000    0.999

   2.094  -3.164  -0.162  (3,+1)   -0.110    0.105    -1.732    0.085    1.328

 ( H     13       0      0      0   0.837 AU )        -0.482   -0.707   -0.517
                                                      -0.482    0.707   -0.517
                                                      -0.731    0.000    0.682

   0.931  -3.113  -0.188  (3,-1)   -0.084    0.100    -1.973   -0.075    0.652

 ( H     13       0      0      0   0.872 AU )         0.526   -0.741    0.418
                                                      -0.586   -0.672   -0.453
                                                      -0.616    0.007    0.787

   0.000  -0.000  -4.426  (3,-3)   -0.000    0.000    -0.002   -0.002   -0.001

 ( H      9       0      0     -1   4.188 AU )         0.516    0.856    0.000
                                                      -0.856    0.516   -0.000
                                                      -0.000    0.000    1.000

   0.936  -4.322  -0.137  (3,+1)   -0.119    0.105    -1.803    0.113    1.268

 ( H     13       0      0      0   0.843 AU )        -0.479   -0.707    0.520
                                                      -0.479    0.707    0.520
                                                       0.736   -0.000    0.677
 *******************************************************************************
 TTTTTTTTTTTTTTTTTTTTTTTTTTTTTT TLAP        TELAPSE       33.99 TCPU       33.97
 TTTTTTTTTTTTTTTTTTTTTTTTTTTTTT END         TELAPSE       33.99 TCPU       33.97
 EEEEEEEEEE TERMINATION  DATE 04 08 2025 TIME 17:32:30.3
