
         
 *******************************************************************************
 *                                                                             *
 *                               CRYSTAL23                                     *
 *                      public : 1.0.1 - October 2022                          *
 *                       HTTP://WWW.CRYSTAL.UNITO.IT                           *
 *                                                                             *
 *                              MAIN AUTHORS                                   *
 *                                                                             *
 *  R. DOVESI(1,11), V.R. SAUNDERS(2), C. ROETTI(1,11), R. ORLANDO(1,11),      *
 *  C.M. ZICOVICH-WILSON(1,3), F. PASCALE(4), B. CIVALLERI(1,11),              *
 *  K. DOLL(5), N.M. HARRISON(6), I.J. BUSH(7), Ph. D'ARCO(8),                 *
 *  M. LLUNELL(9), M. CAUSA'(10), Y. NOEL(8), L. MASCHIO(1,11), A. ERBA(1,11)  *
 *  M. RE'RAT(14), S. CASASSA(1,11), B.G. SEARLE(2), J.K. DESMARAIS(1)         *
 *                                                                             *
 *        CONTRIBUTIONS TO THE CODE HAVE ALSO BEEN GIVEN BY                    *
 *                                                                             *
 *  M. FERRABONE(1,11), M. DE LA PIERRE(1,11), M. FERRERO(1,11),               *
 *  J. BAIMA(1,11), E. ALBANESE(1,11), M.F. PEINTINGER(12), R. BAST(13),       *
 *  B. KIRTMAN(15), V. LACIVITA(1,11), R. DEMICHELIS(1,16)                     *
 *  G. BRANDEBURG(17), S. SALUSTRO(1,11), G. SANSONE(1,11)                     *
 *  M.T. RUGGIERO(18), L.E. DAGA(1), L. DONA'(1), A. COSSARD(1)                *
 *                                                                             *
 * (1) THEORETICAL CHEMISTRY GROUP - UNIVERSITA' DI TORINO - TORINO (ITALY)    *
 * (2) SCIENTIFIC COMPUTING DEPARTMENT - STFC DARESBURY (UK)                   *
 * (3) UNIVERSIDAD AUTONOMA DEL ESTADO DE MORELOS - CUERNAVACA (MEXICO)        *
 * (4) UNIVERSITE' DE LORRAINE - NANCY (FRANCE)                                *
 * (5) UNIVERSITAET STUTTGART- STUTTGART (GERMANY)                             *
 * (6) IMPERIAL COLLEGE - LONDON (UK)                                          *
 * (7) SCIENTIFIC COMPUTING DEPARTMENT - STFC RAL (UK)                         *
 * (8) UPMC - SORBONNE UNIVERSITES - PARIS (FRANCE)                            *
 * (9) UNIVERSIDAD DE BARCELONA - BARCELONA (SPAIN)                            *
 *(10) UNIVERSITA' DI NAPOLI "FEDERICO II" - NAPOLI (ITALY)                    *
 *(11) NIS - NANOSTRUCTURED INTERFACES AND SURFACES - TORINO (ITALY)           *
 *(12) MPI FUER CHEMISCHE ENERGIEKONVERSION - MUELHEIM AN DER RUHR (GERMANY)   *
 *(13) UNIVERSITY OF TROMSO - TROMSO (NORWAY)                                  *
 *(14) UNIVERSITE' DE PAU ET DES PAYS DE L'ADOUR - PAU (FRANCE)                *
 *(15) UNIVERSITY OF CALIFORNIA SANTA BARBARA - SANTA BARBARA (USA)            *
 *(16) CURTIN UNIVERSITY - PERTH (AUSTRALIA)                                   *
 *(17) UNIVERSITY COLLEGE LONDON - LONDON (UK)                                 *
 *(18) UNIVERSITY OF VERMONT - BURLINGTON (USA)                                *
 *                                                                             *
 *******************************************************************************
 EEEEEEEEEE STARTING  DATE 12 08 2025 TIME 12:36:40.2
 DIAMOND                                                                         

 CRYSTAL CALCULATION
 (INPUT ACCORDING TO THE INTERNATIONAL TABLES FOR X-RAY CRYSTALLOGRAPHY)
 CRYSTAL FAMILY                       :  CUBIC       
 CRYSTAL CLASS  (GROTH - 1921)        :  CUBIC HEXAKISOCTAHEDRAL              

 SPACE GROUP (CENTROSYMMETRIC)        :  F D 3 M         

 LATTICE PARAMETERS  (ANGSTROMS AND DEGREES) - CONVENTIONAL CELL
        A           B           C        ALPHA        BETA       GAMMA
     3.57000     3.57000     3.57000    90.00000    90.00000    90.00000


 NUMBER OF IRREDUCIBLE ATOMS IN THE CONVENTIONAL CELL:    1

 INPUT COORDINATES

 ATOM AT. N.              COORDINATES
   1   6     1.250000000000E-01  1.250000000000E-01  1.250000000000E-01

 *******************************************************************************

 << INFORMATION >>: FROM NOW ON, ALL COORDINATES REFER TO THE PRIMITIVE CELL

 *******************************************************************************

 LATTICE PARAMETERS  (ANGSTROMS AND DEGREES) - PRIMITIVE CELL
       A          B          C        ALPHA      BETA     GAMMA        VOLUME
    2.52437    2.52437    2.52437    60.00000  60.00000  60.00000     11.374823

 COORDINATES OF THE EQUIVALENT ATOMS (FRACTIONAL UNITS)

 N. ATOM EQUIV AT. N.          X                  Y                  Z

   1   1   1    6 C     1.25000000000E-01  1.25000000000E-01  1.25000000000E-01
   2   1   2    6 C    -1.25000000000E-01 -1.25000000000E-01 -1.25000000000E-01

 NUMBER OF SYMMETRY OPERATORS         :   48
 *******************************************************************************
 * GEOMETRY EDITING - INPUT COORDINATES ARE GIVEN IN ANGSTROM         
 *******************************************************************************

 GEOMETRY NOW FULLY CONSISTENT WITH THE GROUP
 INFORMATION **** SUPERCON **** SUPERCELL EXPANSION MATRIX REFERS TO CRYSTALLOGRAPHIC CELL


 ATOMS TRANSLATED BY (FRACTIONAL)      0.12500      0.12500      0.12500
 ATOMS TRANSLATED BY (ANGSTROM)         0.44625      0.44625      0.44625
 NUMBER OF OPERATORS WITH FINITE TRANSLATORS HAS BEEN REDUCED FROM 36 TO 24

 REMOVAL OF SYMMOPS WITH FINITE TRANSLATIONAL COMPONENTS
 HAS REDUCED THEIR NUMBER FROM 48 TO 24

 *******************************************************************************
 * SUPERCELL OPTION
 *******************************************************************************


        EXPANSION MATRIX OF CONVENTIONAL CELL
 E1     2.000     0.000     0.000
 E2     0.000     2.000     0.000
 E3     0.000     0.000     2.000

        EXPANSION MATRIX OF PRIMITIVE CELL
 E1    -2.000     2.000     2.000
 E2     2.000    -2.000     2.000
 E3     2.000     2.000    -2.000

 NUMBER OF ATOMS PER SUPERCELL    64

        DIRECT LATTICE VECTORS COMPONENTS (ANGSTROM)
 B1     7.140     0.000     0.000
 B2     0.000     7.140     0.000
 B3     0.000     0.000     7.140

 LATTICE PARAMETERS  (ANGSTROM AND DEGREES)
       A          B          C         ALPHA     BETA     GAMMA        VOLUME
    7.14000    7.14000    7.14000    90.00000  90.00000  90.00000    363.994344


 **** ATOMS BELONGING TO THE SUPERCELL
 LABEL AT.NO.      COORDINATES (ANGSTROM AND FRACTIONAL)
     1     6     0.8925     0.8925     0.8925     0.1250     0.1250     0.1250
     2     6     2.6775     2.6775     0.8925     0.3750     0.3750     0.1250
     3     6    -2.6775    -2.6775     0.8925    -0.3750    -0.3750     0.1250
     4     6    -0.8925    -0.8925     0.8925    -0.1250    -0.1250     0.1250
     5     6     2.6775     0.8925     2.6775     0.3750     0.1250     0.3750
     6     6    -2.6775     2.6775     2.6775    -0.3750     0.3750     0.3750
     7     6    -0.8925    -2.6775     2.6775    -0.1250    -0.3750     0.3750
     8     6     0.8925    -0.8925     2.6775     0.1250    -0.1250     0.3750
     9     6    -2.6775     0.8925    -2.6775    -0.3750     0.1250    -0.3750
    10     6    -0.8925     2.6775    -2.6775    -0.1250     0.3750    -0.3750
    11     6     0.8925    -2.6775    -2.6775     0.1250    -0.3750    -0.3750
    12     6     2.6775    -0.8925    -2.6775     0.3750    -0.1250    -0.3750
    13     6    -0.8925     0.8925    -0.8925    -0.1250     0.1250    -0.1250
    14     6     0.8925     2.6775    -0.8925     0.1250     0.3750    -0.1250
    15     6     2.6775    -2.6775    -0.8925     0.3750    -0.3750    -0.1250
    16     6    -2.6775    -0.8925    -0.8925    -0.3750    -0.1250    -0.1250
    17     6     0.8925     2.6775     2.6775     0.1250     0.3750     0.3750
    18     6     2.6775    -2.6775     2.6775     0.3750    -0.3750     0.3750
    19     6    -2.6775    -0.8925     2.6775    -0.3750    -0.1250     0.3750
    20     6    -0.8925     0.8925     2.6775    -0.1250     0.1250     0.3750
    21     6     2.6775     2.6775    -2.6775     0.3750     0.3750    -0.3750
    22     6    -2.6775    -2.6775    -2.6775    -0.3750    -0.3750    -0.3750
    23     6    -0.8925    -0.8925    -2.6775    -0.1250    -0.1250    -0.3750
    24     6     0.8925     0.8925    -2.6775     0.1250     0.1250    -0.3750
    25     6    -2.6775     2.6775    -0.8925    -0.3750     0.3750    -0.1250
    26     6    -0.8925    -2.6775    -0.8925    -0.1250    -0.3750    -0.1250
    27     6     0.8925    -0.8925    -0.8925     0.1250    -0.1250    -0.1250
    28     6     2.6775     0.8925    -0.8925     0.3750     0.1250    -0.1250
    29     6    -0.8925     2.6775     0.8925    -0.1250     0.3750     0.1250
    30     6     0.8925    -2.6775     0.8925     0.1250    -0.3750     0.1250
    31     6     2.6775    -0.8925     0.8925     0.3750    -0.1250     0.1250
    32     6    -2.6775     0.8925     0.8925    -0.3750     0.1250     0.1250
    33     6    -0.0000    -0.0000    -0.0000    -0.0000    -0.0000    -0.0000
    34     6     1.7850     1.7850    -0.0000     0.2500     0.2500    -0.0000
    35     6     3.5700     3.5700    -0.0000     0.5000     0.5000    -0.0000
    36     6    -1.7850    -1.7850    -0.0000    -0.2500    -0.2500    -0.0000
    37     6     1.7850    -0.0000     1.7850     0.2500    -0.0000     0.2500
    38     6     3.5700     1.7850     1.7850     0.5000     0.2500     0.2500
    39     6    -1.7850     3.5700     1.7850    -0.2500     0.5000     0.2500
    40     6    -0.0000    -1.7850     1.7850    -0.0000    -0.2500     0.2500
    41     6     3.5700    -0.0000     3.5700     0.5000    -0.0000     0.5000
    42     6    -1.7850     1.7850     3.5700    -0.2500     0.2500     0.5000
    43     6    -0.0000     3.5700     3.5700    -0.0000     0.5000     0.5000
    44     6     1.7850    -1.7850     3.5700     0.2500    -0.2500     0.5000
    45     6    -1.7850    -0.0000    -1.7850    -0.2500    -0.0000    -0.2500
    46     6    -0.0000     1.7850    -1.7850    -0.0000     0.2500    -0.2500
    47     6     1.7850     3.5700    -1.7850     0.2500     0.5000    -0.2500
    48     6    -3.5700    -1.7850    -1.7850    -0.5000    -0.2500    -0.2500
    49     6    -0.0000     1.7850     1.7850    -0.0000     0.2500     0.2500
    50     6     1.7850     3.5700     1.7850     0.2500     0.5000     0.2500
    51     6     3.5700    -1.7850     1.7850     0.5000    -0.2500     0.2500
    52     6    -1.7850    -0.0000     1.7850    -0.2500    -0.0000     0.2500
    53     6     1.7850     1.7850     3.5700     0.2500     0.2500     0.5000
    54     6     3.5700     3.5700     3.5700     0.5000     0.5000     0.5000
    55     6    -1.7850    -1.7850     3.5700    -0.2500    -0.2500     0.5000
    56     6    -0.0000    -0.0000     3.5700    -0.0000    -0.0000     0.5000
    57     6     3.5700     1.7850    -1.7850     0.5000     0.2500    -0.2500
    58     6    -1.7850     3.5700    -1.7850    -0.2500     0.5000    -0.2500
    59     6    -0.0000    -1.7850    -1.7850    -0.0000    -0.2500    -0.2500
    60     6     1.7850    -0.0000    -1.7850     0.2500    -0.0000    -0.2500
    61     6    -1.7850     1.7850    -0.0000    -0.2500     0.2500    -0.0000
    62     6    -0.0000     3.5700    -0.0000    -0.0000     0.5000    -0.0000
    63     6     1.7850    -1.7850    -0.0000     0.2500    -0.2500    -0.0000
    64     6    -3.5700    -0.0000    -0.0000    -0.5000    -0.0000    -0.0000

 **************************** SUPERCELL GENERATED ****************************

 GCALCO - MAX INDICES DIRECT LATTICE VECTOR    14    14    14
 NO.OF VECTORS CREATED 6999 STARS  120 RMAX   160.21628 BOHR

 GEOMETRY FOR WAVE FUNCTION - DIMENSIONALITY OF THE SYSTEM    3
 (NON PERIODIC DIRECTION: LATTICE PARAMETER FORMALLY SET TO 500)
 *******************************************************************************
 LATTICE PARAMETERS (ANGSTROMS AND DEGREES) - BOHR = 0.5291772083 ANGSTROM
 PRIMITIVE CELL - CENTRING CODE 1/1 VOLUME=   363.994344 - DENSITY  3.504 g/cm^3
         A              B              C           ALPHA      BETA       GAMMA 
     7.14000000     7.14000000     7.14000000    90.000000  90.000000  90.000000
 *******************************************************************************
 ATOMS IN THE ASYMMETRIC UNIT   10 - ATOMS IN THE UNIT CELL:   64
     ATOM                 X/A                 Y/B                 Z/C    
 *******************************************************************************
      1 T   6 C     1.250000000000E-01  1.250000000000E-01  1.250000000000E-01
      2 T   6 C     3.750000000000E-01  3.750000000000E-01  1.250000000000E-01
      3 F   6 C    -3.750000000000E-01 -3.750000000000E-01  1.250000000000E-01
      4 F   6 C    -1.250000000000E-01 -1.250000000000E-01  1.250000000000E-01
      5 F   6 C     3.750000000000E-01  1.250000000000E-01  3.750000000000E-01
      6 T   6 C    -3.750000000000E-01  3.750000000000E-01  3.750000000000E-01
      7 F   6 C    -1.250000000000E-01 -3.750000000000E-01  3.750000000000E-01
      8 T   6 C     1.250000000000E-01 -1.250000000000E-01  3.750000000000E-01
      9 F   6 C    -3.750000000000E-01  1.250000000000E-01 -3.750000000000E-01
     10 F   6 C    -1.250000000000E-01  3.750000000000E-01 -3.750000000000E-01
     11 F   6 C     1.250000000000E-01 -3.750000000000E-01 -3.750000000000E-01
     12 F   6 C     3.750000000000E-01 -1.250000000000E-01 -3.750000000000E-01
     13 F   6 C    -1.250000000000E-01  1.250000000000E-01 -1.250000000000E-01
     14 F   6 C     1.250000000000E-01  3.750000000000E-01 -1.250000000000E-01
     15 F   6 C     3.750000000000E-01 -3.750000000000E-01 -1.250000000000E-01
     16 F   6 C    -3.750000000000E-01 -1.250000000000E-01 -1.250000000000E-01
     17 F   6 C     1.250000000000E-01  3.750000000000E-01  3.750000000000E-01
     18 F   6 C     3.750000000000E-01 -3.750000000000E-01  3.750000000000E-01
     19 F   6 C    -3.750000000000E-01 -1.250000000000E-01  3.750000000000E-01
     20 F   6 C    -1.250000000000E-01  1.250000000000E-01  3.750000000000E-01
     21 F   6 C     3.750000000000E-01  3.750000000000E-01 -3.750000000000E-01
     22 F   6 C    -3.750000000000E-01 -3.750000000000E-01 -3.750000000000E-01
     23 F   6 C    -1.250000000000E-01 -1.250000000000E-01 -3.750000000000E-01
     24 F   6 C     1.250000000000E-01  1.250000000000E-01 -3.750000000000E-01
     25 F   6 C    -3.750000000000E-01  3.750000000000E-01 -1.250000000000E-01
     26 F   6 C    -1.250000000000E-01 -3.750000000000E-01 -1.250000000000E-01
     27 F   6 C     1.250000000000E-01 -1.250000000000E-01 -1.250000000000E-01
     28 F   6 C     3.750000000000E-01  1.250000000000E-01 -1.250000000000E-01
     29 F   6 C    -1.250000000000E-01  3.750000000000E-01  1.250000000000E-01
     30 F   6 C     1.250000000000E-01 -3.750000000000E-01  1.250000000000E-01
     31 F   6 C     3.750000000000E-01 -1.250000000000E-01  1.250000000000E-01
     32 F   6 C    -3.750000000000E-01  1.250000000000E-01  1.250000000000E-01
     33 T   6 C    -2.220446049250E-16 -2.220446049250E-16 -2.220446049250E-16
     34 T   6 C     2.500000000000E-01  2.500000000000E-01 -2.220446049250E-16
     35 T   6 C     5.000000000000E-01  5.000000000000E-01 -2.220446049250E-16
     36 F   6 C    -2.500000000000E-01 -2.500000000000E-01 -2.220446049250E-16
     37 F   6 C     2.500000000000E-01 -2.220446049250E-16  2.500000000000E-01
     38 T   6 C     5.000000000000E-01  2.500000000000E-01  2.500000000000E-01
     39 F   6 C    -2.500000000000E-01  5.000000000000E-01  2.500000000000E-01
     40 F   6 C    -3.109868416317E-17 -2.500000000000E-01  2.500000000000E-01
     41 F   6 C     5.000000000000E-01 -2.220446049250E-16  5.000000000000E-01
     42 F   6 C    -2.500000000000E-01  2.500000000000E-01  5.000000000000E-01
     43 F   6 C    -3.109868416317E-17  5.000000000000E-01  5.000000000000E-01
     44 F   6 C     2.500000000000E-01 -2.500000000000E-01  5.000000000000E-01
     45 F   6 C    -2.500000000000E-01 -2.220446049250E-16 -2.500000000000E-01
     46 F   6 C    -3.109868416317E-17  2.500000000000E-01 -2.500000000000E-01
     47 F   6 C     2.500000000000E-01  5.000000000000E-01 -2.500000000000E-01
     48 F   6 C     5.000000000000E-01 -2.500000000000E-01 -2.500000000000E-01
     49 F   6 C    -2.220446049250E-16  2.500000000000E-01  2.500000000000E-01
     50 F   6 C     2.500000000000E-01  5.000000000000E-01  2.500000000000E-01
     51 F   6 C     5.000000000000E-01 -2.500000000000E-01  2.500000000000E-01
     52 F   6 C    -2.500000000000E-01 -3.109868416317E-17  2.500000000000E-01
     53 F   6 C     2.500000000000E-01  2.500000000000E-01  5.000000000000E-01
     54 T   6 C     5.000000000000E-01  5.000000000000E-01  5.000000000000E-01
     55 F   6 C    -2.500000000000E-01 -2.500000000000E-01  5.000000000000E-01
     56 T   6 C    -3.109868416317E-17 -3.109868416317E-17  5.000000000000E-01
     57 F   6 C     5.000000000000E-01  2.500000000000E-01 -2.500000000000E-01
     58 F   6 C    -2.500000000000E-01  5.000000000000E-01 -2.500000000000E-01
     59 F   6 C    -3.109868416317E-17 -2.500000000000E-01 -2.500000000000E-01
     60 F   6 C     2.500000000000E-01 -3.109868416317E-17 -2.500000000000E-01
     61 F   6 C    -2.500000000000E-01  2.500000000000E-01 -3.109868416317E-17
     62 F   6 C    -3.109868416317E-17  5.000000000000E-01 -3.109868416317E-17
     63 F   6 C     2.500000000000E-01 -2.500000000000E-01 -3.109868416317E-17
     64 F   6 C     5.000000000000E-01 -3.109868416317E-17 -3.109868416317E-17

 T = ATOM BELONGING TO THE ASYMMETRIC UNIT

 ****   24 SYMMOPS - TRANSLATORS IN FRACTIONAL UNITS
 **** MATRICES AND TRANSLATORS IN THE CRYSTALLOGRAPHIC REFERENCE FRAME
   V INV                    ROTATION MATRICES                   TRANSLATORS
   1   1  1.00  0.00  0.00  0.00  1.00  0.00  0.00  0.00  1.00  0.00  0.00  0.00
   2   2 -1.00  0.00  0.00  0.00 -1.00  0.00  0.00  0.00  1.00  0.00  0.00  0.00
   3   3  1.00  0.00  0.00  0.00 -1.00  0.00  0.00  0.00 -1.00  0.00  0.00  0.00
   4   4 -1.00  0.00  0.00  0.00  1.00  0.00  0.00  0.00 -1.00  0.00  0.00  0.00
   5   6  0.00  0.00  1.00  1.00  0.00  0.00  0.00  1.00  0.00  0.00  0.00  0.00
   6   5  0.00  1.00  0.00  0.00  0.00  1.00  1.00  0.00  0.00  0.00  0.00  0.00
   7   8  0.00  0.00 -1.00 -1.00  0.00  0.00  0.00  1.00  0.00  0.00  0.00  0.00
   8   7  0.00 -1.00  0.00  0.00  0.00  1.00 -1.00  0.00  0.00  0.00  0.00  0.00
   9  10  0.00  0.00  1.00 -1.00  0.00  0.00  0.00 -1.00  0.00  0.00  0.00  0.00
  10   9  0.00 -1.00  0.00  0.00  0.00 -1.00  1.00  0.00  0.00  0.00  0.00  0.00
  11  12  0.00  0.00 -1.00  1.00  0.00  0.00  0.00 -1.00  0.00  0.00  0.00  0.00
  12  11  0.00  1.00  0.00  0.00  0.00 -1.00 -1.00  0.00  0.00  0.00  0.00  0.00
  13  13  0.00  1.00  0.00  1.00  0.00  0.00  0.00  0.00  1.00  0.00  0.00  0.00
  14  14  0.00 -1.00  0.00 -1.00  0.00  0.00  0.00  0.00  1.00  0.00  0.00  0.00
  15  16  0.00 -1.00  0.00  1.00  0.00  0.00  0.00  0.00 -1.00  0.00  0.00  0.00
  16  15  0.00  1.00  0.00 -1.00  0.00  0.00  0.00  0.00 -1.00  0.00  0.00  0.00
  17  17  1.00  0.00  0.00  0.00  0.00  1.00  0.00  1.00  0.00  0.00  0.00  0.00
  18  18  0.00  0.00  1.00  0.00  1.00  0.00  1.00  0.00  0.00  0.00  0.00  0.00
  19  21 -1.00  0.00  0.00  0.00  0.00 -1.00  0.00  1.00  0.00  0.00  0.00  0.00
  20  22  0.00  0.00  1.00  0.00 -1.00  0.00 -1.00  0.00  0.00  0.00  0.00  0.00
  21  19 -1.00  0.00  0.00  0.00  0.00  1.00  0.00 -1.00  0.00  0.00  0.00  0.00
  22  20  0.00  0.00 -1.00  0.00 -1.00  0.00  1.00  0.00  0.00  0.00  0.00  0.00
  23  23  1.00  0.00  0.00  0.00  0.00 -1.00  0.00 -1.00  0.00  0.00  0.00  0.00
  24  24  0.00  0.00 -1.00  0.00  1.00  0.00 -1.00  0.00  0.00  0.00  0.00  0.00

 DIRECT LATTICE VECTORS CARTESIAN COMPONENTS (ANGSTROM)
          X                    Y                    Z
   0.714000000000E+01   0.000000000000E+00   0.000000000000E+00
   0.000000000000E+00   0.714000000000E+01   0.000000000000E+00
   0.000000000000E+00   0.000000000000E+00   0.714000000000E+01


 CARTESIAN COORDINATES - PRIMITIVE CELL
 *******************************************************************************
 *      ATOM          X(ANGSTROM)         Y(ANGSTROM)         Z(ANGSTROM)
 *******************************************************************************
    1     6 C     8.925000000000E-01  8.925000000000E-01  8.925000000000E-01
    2     6 C     2.677500000000E+00  2.677500000000E+00  8.925000000000E-01
    3     6 C    -2.677500000000E+00 -2.677500000000E+00  8.925000000000E-01
    4     6 C    -8.925000000000E-01 -8.925000000000E-01  8.925000000000E-01
    5     6 C     2.677500000000E+00  8.925000000000E-01  2.677500000000E+00
    6     6 C    -2.677500000000E+00  2.677500000000E+00  2.677500000000E+00
    7     6 C    -8.925000000000E-01 -2.677500000000E+00  2.677500000000E+00
    8     6 C     8.925000000000E-01 -8.925000000000E-01  2.677500000000E+00
    9     6 C    -2.677500000000E+00  8.925000000000E-01 -2.677500000000E+00
   10     6 C    -8.925000000000E-01  2.677500000000E+00 -2.677500000000E+00
   11     6 C     8.925000000000E-01 -2.677500000000E+00 -2.677500000000E+00
   12     6 C     2.677500000000E+00 -8.925000000000E-01 -2.677500000000E+00
   13     6 C    -8.925000000000E-01  8.925000000000E-01 -8.925000000000E-01
   14     6 C     8.925000000000E-01  2.677500000000E+00 -8.925000000000E-01
   15     6 C     2.677500000000E+00 -2.677500000000E+00 -8.925000000000E-01
   16     6 C    -2.677500000000E+00 -8.925000000000E-01 -8.925000000000E-01
   17     6 C     8.925000000000E-01  2.677500000000E+00  2.677500000000E+00
   18     6 C     2.677500000000E+00 -2.677500000000E+00  2.677500000000E+00
   19     6 C    -2.677500000000E+00 -8.925000000000E-01  2.677500000000E+00
   20     6 C    -8.925000000000E-01  8.925000000000E-01  2.677500000000E+00
   21     6 C     2.677500000000E+00  2.677500000000E+00 -2.677500000000E+00
   22     6 C    -2.677500000000E+00 -2.677500000000E+00 -2.677500000000E+00
   23     6 C    -8.925000000000E-01 -8.925000000000E-01 -2.677500000000E+00
   24     6 C     8.925000000000E-01  8.925000000000E-01 -2.677500000000E+00
   25     6 C    -2.677500000000E+00  2.677500000000E+00 -8.925000000000E-01
   26     6 C    -8.925000000000E-01 -2.677500000000E+00 -8.925000000000E-01
   27     6 C     8.925000000000E-01 -8.925000000000E-01 -8.925000000000E-01
   28     6 C     2.677500000000E+00  8.925000000000E-01 -8.925000000000E-01
   29     6 C    -8.925000000000E-01  2.677500000000E+00  8.925000000000E-01
   30     6 C     8.925000000000E-01 -2.677500000000E+00  8.925000000000E-01
   31     6 C     2.677500000000E+00 -8.925000000000E-01  8.925000000000E-01
   32     6 C    -2.677500000000E+00  8.925000000000E-01  8.925000000000E-01
   33     6 C    -1.585398479165E-15 -1.585398479165E-15 -1.585398479165E-15
   34     6 C     1.785000000000E+00  1.785000000000E+00 -1.585398479165E-15
   35     6 C     3.570000000000E+00  3.570000000000E+00 -1.585398479165E-15
   36     6 C    -1.785000000000E+00 -1.785000000000E+00 -1.585398479165E-15
   37     6 C     1.785000000000E+00 -1.585398479165E-15  1.785000000000E+00
   38     6 C     3.570000000000E+00  1.785000000000E+00  1.785000000000E+00
   39     6 C    -1.785000000000E+00  3.570000000000E+00  1.785000000000E+00
   40     6 C    -2.220446049250E-16 -1.785000000000E+00  1.785000000000E+00
   41     6 C     3.570000000000E+00 -1.585398479165E-15  3.570000000000E+00
   42     6 C    -1.785000000000E+00  1.785000000000E+00  3.570000000000E+00
   43     6 C    -2.220446049250E-16  3.570000000000E+00  3.570000000000E+00
   44     6 C     1.785000000000E+00 -1.785000000000E+00  3.570000000000E+00
   45     6 C    -1.785000000000E+00 -1.585398479165E-15 -1.785000000000E+00
   46     6 C    -2.220446049250E-16  1.785000000000E+00 -1.785000000000E+00
   47     6 C     1.785000000000E+00  3.570000000000E+00 -1.785000000000E+00
   48     6 C     3.570000000000E+00 -1.785000000000E+00 -1.785000000000E+00
   49     6 C    -1.585398479165E-15  1.785000000000E+00  1.785000000000E+00
   50     6 C     1.785000000000E+00  3.570000000000E+00  1.785000000000E+00
   51     6 C     3.570000000000E+00 -1.785000000000E+00  1.785000000000E+00
   52     6 C    -1.785000000000E+00 -2.220446049250E-16  1.785000000000E+00
   53     6 C     1.785000000000E+00  1.785000000000E+00  3.570000000000E+00
   54     6 C     3.570000000000E+00  3.570000000000E+00  3.570000000000E+00
   55     6 C    -1.785000000000E+00 -1.785000000000E+00  3.570000000000E+00
   56     6 C    -2.220446049250E-16 -2.220446049250E-16  3.570000000000E+00
   57     6 C     3.570000000000E+00  1.785000000000E+00 -1.785000000000E+00
   58     6 C    -1.785000000000E+00  3.570000000000E+00 -1.785000000000E+00
   59     6 C    -2.220446049250E-16 -1.785000000000E+00 -1.785000000000E+00
   60     6 C     1.785000000000E+00 -2.220446049250E-16 -1.785000000000E+00
   61     6 C    -1.785000000000E+00  1.785000000000E+00 -2.220446049250E-16
   62     6 C    -2.220446049250E-16  3.570000000000E+00 -2.220446049250E-16
   63     6 C     1.785000000000E+00 -1.785000000000E+00 -2.220446049250E-16
   64     6 C     3.570000000000E+00 -2.220446049250E-16 -2.220446049250E-16
 WARNING **** CRYSTA **** TESTGEOM  DIRECTIVE - GEOMETRY EDITING COMPLETE
 TTTTTTTTTTTTTTTTTTTTTTTTTTTTTT END         TELAPSE        0.22 TCPU        0.22
 EEEEEEEEEE TERMINATION  DATE 12 08 2025 TIME 12:36:40.5
