
         
 *******************************************************************************
 *                                                                             *
 *                               CRYSTAL23                                     *
 *                      public : 1.0.1 - October 2022                          *
 *                       HTTP://WWW.CRYSTAL.UNITO.IT                           *
 *                                                                             *
 *                              MAIN AUTHORS                                   *
 *                                                                             *
 *  R. DOVESI(1,11), V.R. SAUNDERS(2), C. ROETTI(1,11), R. ORLANDO(1,11),      *
 *  C.M. ZICOVICH-WILSON(1,3), F. PASCALE(4), B. CIVALLERI(1,11),              *
 *  K. DOLL(5), N.M. HARRISON(6), I.J. BUSH(7), Ph. D'ARCO(8),                 *
 *  M. LLUNELL(9), M. CAUSA'(10), Y. NOEL(8), L. MASCHIO(1,11), A. ERBA(1,11)  *
 *  M. RE'RAT(14), S. CASASSA(1,11), B.G. SEARLE(2), J.K. DESMARAIS(1)         *
 *                                                                             *
 *        CONTRIBUTIONS TO THE CODE HAVE ALSO BEEN GIVEN BY                    *
 *                                                                             *
 *  M. FERRABONE(1,11), M. DE LA PIERRE(1,11), M. FERRERO(1,11),               *
 *  J. BAIMA(1,11), E. ALBANESE(1,11), M.F. PEINTINGER(12), R. BAST(13),       *
 *  B. KIRTMAN(15), V. LACIVITA(1,11), R. DEMICHELIS(1,16)                     *
 *  G. BRANDEBURG(17), S. SALUSTRO(1,11), G. SANSONE(1,11)                     *
 *  M.T. RUGGIERO(18), L.E. DAGA(1), L. DONA'(1), A. COSSARD(1)                *
 *                                                                             *
 * (1) THEORETICAL CHEMISTRY GROUP - UNIVERSITA' DI TORINO - TORINO (ITALY)    *
 * (2) SCIENTIFIC COMPUTING DEPARTMENT - STFC DARESBURY (UK)                   *
 * (3) UNIVERSIDAD AUTONOMA DEL ESTADO DE MORELOS - CUERNAVACA (MEXICO)        *
 * (4) UNIVERSITE' DE LORRAINE - NANCY (FRANCE)                                *
 * (5) UNIVERSITAET STUTTGART- STUTTGART (GERMANY)                             *
 * (6) IMPERIAL COLLEGE - LONDON (UK)                                          *
 * (7) SCIENTIFIC COMPUTING DEPARTMENT - STFC RAL (UK)                         *
 * (8) UPMC - SORBONNE UNIVERSITES - PARIS (FRANCE)                            *
 * (9) UNIVERSIDAD DE BARCELONA - BARCELONA (SPAIN)                            *
 *(10) UNIVERSITA' DI NAPOLI "FEDERICO II" - NAPOLI (ITALY)                    *
 *(11) NIS - NANOSTRUCTURED INTERFACES AND SURFACES - TORINO (ITALY)           *
 *(12) MPI FUER CHEMISCHE ENERGIEKONVERSION - MUELHEIM AN DER RUHR (GERMANY)   *
 *(13) UNIVERSITY OF TROMSO - TROMSO (NORWAY)                                  *
 *(14) UNIVERSITE' DE PAU ET DES PAYS DE L'ADOUR - PAU (FRANCE)                *
 *(15) UNIVERSITY OF CALIFORNIA SANTA BARBARA - SANTA BARBARA (USA)            *
 *(16) CURTIN UNIVERSITY - PERTH (AUSTRALIA)                                   *
 *(17) UNIVERSITY COLLEGE LONDON - LONDON (UK)                                 *
 *(18) UNIVERSITY OF VERMONT - BURLINGTON (USA)                                *
 *                                                                             *
 *******************************************************************************
 EEEEEEEEEE STARTING  DATE 12 08 2025 TIME 12:36:14.9
 DIAMOND                                                                         

 CRYSTAL CALCULATION
 (INPUT ACCORDING TO THE INTERNATIONAL TABLES FOR X-RAY CRYSTALLOGRAPHY)
 CRYSTAL FAMILY                       :  CUBIC       
 CRYSTAL CLASS  (GROTH - 1921)        :  CUBIC HEXAKISOCTAHEDRAL              

 SPACE GROUP (CENTROSYMMETRIC)        :  F D 3 M         

 LATTICE PARAMETERS  (ANGSTROMS AND DEGREES) - CONVENTIONAL CELL
        A           B           C        ALPHA        BETA       GAMMA
     3.57000     3.57000     3.57000    90.00000    90.00000    90.00000


 NUMBER OF IRREDUCIBLE ATOMS IN THE CONVENTIONAL CELL:    1

 INPUT COORDINATES

 ATOM AT. N.              COORDINATES
   1   6     1.250000000000E-01  1.250000000000E-01  1.250000000000E-01

 *******************************************************************************

 << INFORMATION >>: FROM NOW ON, ALL COORDINATES REFER TO THE PRIMITIVE CELL

 *******************************************************************************

 LATTICE PARAMETERS  (ANGSTROMS AND DEGREES) - PRIMITIVE CELL
       A          B          C        ALPHA      BETA     GAMMA        VOLUME
    2.52437    2.52437    2.52437    60.00000  60.00000  60.00000     11.374823

 COORDINATES OF THE EQUIVALENT ATOMS (FRACTIONAL UNITS)

 N. ATOM EQUIV AT. N.          X                  Y                  Z

   1   1   1    6 C     1.25000000000E-01  1.25000000000E-01  1.25000000000E-01
   2   1   2    6 C    -1.25000000000E-01 -1.25000000000E-01 -1.25000000000E-01

 NUMBER OF SYMMETRY OPERATORS         :   48
 *******************************************************************************
 * GEOMETRY EDITING - INPUT COORDINATES ARE GIVEN IN ANGSTROM         
 *******************************************************************************

 GEOMETRY NOW FULLY CONSISTENT WITH THE GROUP


 ATOMS TRANSLATED BY (FRACTIONAL)      0.12500      0.12500      0.12500
 ATOMS TRANSLATED BY (ANGSTROM)         0.44625      0.44625      0.44625
 NUMBER OF OPERATORS WITH FINITE TRANSLATORS HAS BEEN REDUCED FROM 36 TO 24

 REMOVAL OF SYMMOPS WITH FINITE TRANSLATIONAL COMPONENTS
 HAS REDUCED THEIR NUMBER FROM 48 TO 24

 *******************************************************************************
 * SUPERCELL OPTION
 *******************************************************************************


        EXPANSION MATRIX OF PRIMITIVE CELL
 E1     2.000     0.000     0.000
 E2     0.000     2.000     0.000
 E3     0.000     0.000     2.000

 NUMBER OF ATOMS PER SUPERCELL    16

        DIRECT LATTICE VECTORS COMPONENTS (ANGSTROM)
 B1     0.000     3.570     3.570
 B2     3.570     0.000     3.570
 B3     3.570     3.570     0.000

 LATTICE PARAMETERS  (ANGSTROM AND DEGREES)
       A          B          C         ALPHA     BETA     GAMMA        VOLUME
    5.04874    5.04874    5.04874    60.00000  60.00000  60.00000     90.998586


 **** ATOMS BELONGING TO THE SUPERCELL
 LABEL AT.NO.      COORDINATES (ANGSTROM AND FRACTIONAL)
     1     6     0.8925     0.8925     0.8925     0.1250     0.1250     0.1250
     2     6    -0.8925    -0.8925     0.8925     0.1250     0.1250    -0.3750
     3     6    -0.8925     0.8925    -0.8925     0.1250    -0.3750     0.1250
     4     6    -2.6775    -0.8925    -0.8925     0.1250    -0.3750    -0.3750
     5     6     0.8925    -0.8925    -0.8925    -0.3750     0.1250     0.1250
     6     6    -0.8925    -2.6775    -0.8925    -0.3750     0.1250    -0.3750
     7     6    -0.8925    -0.8925    -2.6775    -0.3750    -0.3750     0.1250
     8     6    -2.6775    -2.6775    -2.6775    -0.3750    -0.3750    -0.3750
     9     6    -0.0000    -0.0000    -0.0000    -0.0000    -0.0000    -0.0000
    10     6    -1.7850    -1.7850    -0.0000    -0.0000    -0.0000    -0.5000
    11     6    -1.7850    -0.0000    -1.7850    -0.0000    -0.5000    -0.0000
    12     6    -3.5700    -1.7850    -1.7850     0.0000    -0.5000    -0.5000
    13     6    -0.0000    -1.7850    -1.7850    -0.5000    -0.0000    -0.0000
    14     6    -1.7850    -3.5700    -1.7850    -0.5000     0.0000    -0.5000
    15     6    -1.7850    -1.7850    -3.5700    -0.5000    -0.5000     0.0000
    16     6    -3.5700    -3.5700    -3.5700    -0.5000    -0.5000    -0.5000

 **************************** SUPERCELL GENERATED ****************************

 GCALCO - MAX INDICES DIRECT LATTICE VECTOR    14    14    14
 NO.OF VECTORS CREATED 6999 STARS  105 RMAX   100.96971 BOHR

 GEOMETRY FOR WAVE FUNCTION - DIMENSIONALITY OF THE SYSTEM    3
 (NON PERIODIC DIRECTION: LATTICE PARAMETER FORMALLY SET TO 500)
 *******************************************************************************
 LATTICE PARAMETERS (ANGSTROMS AND DEGREES) - BOHR = 0.5291772083 ANGSTROM
 PRIMITIVE CELL - CENTRING CODE 1/1 VOLUME=    90.998586 - DENSITY  3.504 g/cm^3
         A              B              C           ALPHA      BETA       GAMMA 
     5.04874242     5.04874242     5.04874242    60.000000  60.000000  60.000000
 *******************************************************************************
 ATOMS IN THE ASYMMETRIC UNIT    5 - ATOMS IN THE UNIT CELL:   16
     ATOM                 X/A                 Y/B                 Z/C    
 *******************************************************************************
      1 T   6 C     1.250000000000E-01  1.250000000000E-01  1.250000000000E-01
      2 F   6 C     1.250000000000E-01  1.250000000000E-01 -3.750000000000E-01
      3 F   6 C     1.250000000000E-01 -3.750000000000E-01  1.250000000000E-01
      4 T   6 C     1.250000000000E-01 -3.750000000000E-01 -3.750000000000E-01
      5 F   6 C    -3.750000000000E-01  1.250000000000E-01  1.250000000000E-01
      6 F   6 C    -3.750000000000E-01  1.250000000000E-01 -3.750000000000E-01
      7 F   6 C    -3.750000000000E-01 -3.750000000000E-01  1.250000000000E-01
      8 F   6 C    -3.750000000000E-01 -3.750000000000E-01 -3.750000000000E-01
      9 T   6 C    -3.109868416317E-17 -3.109868416317E-17 -3.109868416317E-17
     10 T   6 C    -3.109868416317E-17 -3.109868416317E-17  5.000000000000E-01
     11 F   6 C    -5.551115123126E-17  5.000000000000E-01  0.000000000000E+00
     12 F   6 C     0.000000000000E+00  5.000000000000E-01  5.000000000000E-01
     13 F   6 C     5.000000000000E-01 -5.551115123126E-17  0.000000000000E+00
     14 F   6 C     5.000000000000E-01  0.000000000000E+00  5.000000000000E-01
     15 F   6 C     5.000000000000E-01  5.000000000000E-01  0.000000000000E+00
     16 T   6 C     5.000000000000E-01  5.000000000000E-01  5.000000000000E-01

 T = ATOM BELONGING TO THE ASYMMETRIC UNIT

 ****   24 SYMMOPS - TRANSLATORS IN FRACTIONAL UNITS
 **** MATRICES AND TRANSLATORS IN THE CRYSTALLOGRAPHIC REFERENCE FRAME
   V INV                    ROTATION MATRICES                   TRANSLATORS
   1   1  1.00  0.00  0.00  0.00  1.00  0.00  0.00  0.00  1.00  0.00  0.00  0.00
   2   2  0.00  1.00  0.00  1.00  0.00  0.00 -1.00 -1.00 -1.00  0.00  0.00  0.00
   3   3 -1.00 -1.00 -1.00  0.00  0.00  1.00  0.00  1.00  0.00  0.00  0.00  0.00
   4   4  0.00  0.00  1.00 -1.00 -1.00 -1.00  1.00  0.00  0.00  0.00  0.00  0.00
   5   6  0.00  0.00  1.00  1.00  0.00  0.00  0.00  1.00  0.00  0.00  0.00  0.00
   6   5  0.00  1.00  0.00  0.00  0.00  1.00  1.00  0.00  0.00  0.00  0.00  0.00
   7   8  1.00  0.00  0.00  0.00  0.00  1.00 -1.00 -1.00 -1.00  0.00  0.00  0.00
   8   7  1.00  0.00  0.00 -1.00 -1.00 -1.00  0.00  1.00  0.00  0.00  0.00  0.00
   9  10 -1.00 -1.00 -1.00  0.00  1.00  0.00  1.00  0.00  0.00  0.00  0.00  0.00
  10   9  0.00  0.00  1.00  0.00  1.00  0.00 -1.00 -1.00 -1.00  0.00  0.00  0.00
  11  12  0.00  1.00  0.00 -1.00 -1.00 -1.00  0.00  0.00  1.00  0.00  0.00  0.00
  12  11 -1.00 -1.00 -1.00  1.00  0.00  0.00  0.00  0.00  1.00  0.00  0.00  0.00
  13  13  0.00  1.00  0.00  1.00  0.00  0.00  0.00  0.00  1.00  0.00  0.00  0.00
  14  14  1.00  0.00  0.00  0.00  1.00  0.00 -1.00 -1.00 -1.00  0.00  0.00  0.00
  15  16  0.00  0.00  1.00 -1.00 -1.00 -1.00  0.00  1.00  0.00  0.00  0.00  0.00
  16  15 -1.00 -1.00 -1.00  0.00  0.00  1.00  1.00  0.00  0.00  0.00  0.00  0.00
  17  17  1.00  0.00  0.00  0.00  0.00  1.00  0.00  1.00  0.00  0.00  0.00  0.00
  18  18  0.00  0.00  1.00  0.00  1.00  0.00  1.00  0.00  0.00  0.00  0.00  0.00
  19  21  0.00  0.00  1.00  1.00  0.00  0.00 -1.00 -1.00 -1.00  0.00  0.00  0.00
  20  22 -1.00 -1.00 -1.00  1.00  0.00  0.00  0.00  1.00  0.00  0.00  0.00  0.00
  21  19  0.00  1.00  0.00 -1.00 -1.00 -1.00  1.00  0.00  0.00  0.00  0.00  0.00
  22  20  0.00  1.00  0.00  0.00  0.00  1.00 -1.00 -1.00 -1.00  0.00  0.00  0.00
  23  23 -1.00 -1.00 -1.00  0.00  1.00  0.00  0.00  0.00  1.00  0.00  0.00  0.00
  24  24  1.00  0.00  0.00 -1.00 -1.00 -1.00  0.00  0.00  1.00  0.00  0.00  0.00

 DIRECT LATTICE VECTORS CARTESIAN COMPONENTS (ANGSTROM)
          X                    Y                    Z
   0.000000000000E+00   0.357000000000E+01   0.357000000000E+01
   0.357000000000E+01   0.000000000000E+00   0.357000000000E+01
   0.357000000000E+01   0.357000000000E+01   0.000000000000E+00


 CARTESIAN COORDINATES - PRIMITIVE CELL
 *******************************************************************************
 *      ATOM          X(ANGSTROM)         Y(ANGSTROM)         Z(ANGSTROM)
 *******************************************************************************
    1     6 C     8.925000000000E-01  8.925000000000E-01  8.925000000000E-01
    2     6 C    -8.925000000000E-01 -8.925000000000E-01  8.925000000000E-01
    3     6 C    -8.925000000000E-01  8.925000000000E-01 -8.925000000000E-01
    4     6 C    -2.677500000000E+00 -8.925000000000E-01 -8.925000000000E-01
    5     6 C     8.925000000000E-01 -8.925000000000E-01 -8.925000000000E-01
    6     6 C    -8.925000000000E-01 -2.677500000000E+00 -8.925000000000E-01
    7     6 C    -8.925000000000E-01 -8.925000000000E-01 -2.677500000000E+00
    8     6 C    -2.677500000000E+00 -2.677500000000E+00 -2.677500000000E+00
    9     6 C    -2.220446049250E-16 -2.220446049250E-16 -2.220446049250E-16
   10     6 C     1.785000000000E+00  1.785000000000E+00 -2.220446049250E-16
   11     6 C     1.785000000000E+00 -1.981748098956E-16  1.785000000000E+00
   12     6 C     3.570000000000E+00  1.785000000000E+00  1.785000000000E+00
   13     6 C    -1.981748098956E-16  1.785000000000E+00  1.785000000000E+00
   14     6 C     1.785000000000E+00  3.570000000000E+00  1.785000000000E+00
   15     6 C     1.785000000000E+00  1.785000000000E+00  3.570000000000E+00
   16     6 C     3.570000000000E+00  3.570000000000E+00  3.570000000000E+00
 WARNING **** CRYSTA **** TESTGEOM  DIRECTIVE - GEOMETRY EDITING COMPLETE
 TTTTTTTTTTTTTTTTTTTTTTTTTTTTTT END         TELAPSE        0.23 TCPU        0.21
 EEEEEEEEEE TERMINATION  DATE 12 08 2025 TIME 12:36:15.1
