
         
 *******************************************************************************
 *                                                                             *
 *                               CRYSTAL23                                     *
 *                      public : 1.0.1 - October 2022                          *
 *                       HTTP://WWW.CRYSTAL.UNITO.IT                           *
 *                                                                             *
 *                              MAIN AUTHORS                                   *
 *                                                                             *
 *  R. DOVESI(1,11), V.R. SAUNDERS(2), C. ROETTI(1,11), R. ORLANDO(1,11),      *
 *  C.M. ZICOVICH-WILSON(1,3), F. PASCALE(4), B. CIVALLERI(1,11),              *
 *  K. DOLL(5), N.M. HARRISON(6), I.J. BUSH(7), Ph. D'ARCO(8),                 *
 *  M. LLUNELL(9), M. CAUSA'(10), Y. NOEL(8), L. MASCHIO(1,11), A. ERBA(1,11)  *
 *  M. RE'RAT(14), S. CASASSA(1,11), B.G. SEARLE(2), J.K. DESMARAIS(1)         *
 *                                                                             *
 *        CONTRIBUTIONS TO THE CODE HAVE ALSO BEEN GIVEN BY                    *
 *                                                                             *
 *  M. FERRABONE(1,11), M. DE LA PIERRE(1,11), M. FERRERO(1,11),               *
 *  J. BAIMA(1,11), E. ALBANESE(1,11), M.F. PEINTINGER(12), R. BAST(13),       *
 *  B. KIRTMAN(15), V. LACIVITA(1,11), R. DEMICHELIS(1,16)                     *
 *  G. BRANDEBURG(17), S. SALUSTRO(1,11), G. SANSONE(1,11)                     *
 *  M.T. RUGGIERO(18), L.E. DAGA(1), L. DONA'(1), A. COSSARD(1)                *
 *                                                                             *
 * (1) THEORETICAL CHEMISTRY GROUP - UNIVERSITA' DI TORINO - TORINO (ITALY)    *
 * (2) SCIENTIFIC COMPUTING DEPARTMENT - STFC DARESBURY (UK)                   *
 * (3) UNIVERSIDAD AUTONOMA DEL ESTADO DE MORELOS - CUERNAVACA (MEXICO)        *
 * (4) UNIVERSITE' DE LORRAINE - NANCY (FRANCE)                                *
 * (5) UNIVERSITAET STUTTGART- STUTTGART (GERMANY)                             *
 * (6) IMPERIAL COLLEGE - LONDON (UK)                                          *
 * (7) SCIENTIFIC COMPUTING DEPARTMENT - STFC RAL (UK)                         *
 * (8) UPMC - SORBONNE UNIVERSITES - PARIS (FRANCE)                            *
 * (9) UNIVERSIDAD DE BARCELONA - BARCELONA (SPAIN)                            *
 *(10) UNIVERSITA' DI NAPOLI "FEDERICO II" - NAPOLI (ITALY)                    *
 *(11) NIS - NANOSTRUCTURED INTERFACES AND SURFACES - TORINO (ITALY)           *
 *(12) MPI FUER CHEMISCHE ENERGIEKONVERSION - MUELHEIM AN DER RUHR (GERMANY)   *
 *(13) UNIVERSITY OF TROMSO - TROMSO (NORWAY)                                  *
 *(14) UNIVERSITE' DE PAU ET DES PAYS DE L'ADOUR - PAU (FRANCE)                *
 *(15) UNIVERSITY OF CALIFORNIA SANTA BARBARA - SANTA BARBARA (USA)            *
 *(16) CURTIN UNIVERSITY - PERTH (AUSTRALIA)                                   *
 *(17) UNIVERSITY COLLEGE LONDON - LONDON (UK)                                 *
 *(18) UNIVERSITY OF VERMONT - BURLINGTON (USA)                                *
 *                                                                             *
 *******************************************************************************
 EEEEEEEEEE STARTING  DATE 04 08 2025 TIME 17:28:02.0
 TEST12 - UREA BULK BASE 6-21 + POLARIZATION                                     

 CRYSTAL CALCULATION
 (INPUT ACCORDING TO THE INTERNATIONAL TABLES FOR X-RAY CRYSTALLOGRAPHY)
 CRYSTAL FAMILY                       :  TETRAGONAL  
 CRYSTAL CLASS  (GROTH - 1921)        :  TETRAGONAL SCALENOHEDRAL             

 SPACE GROUP (NONCENTROSYMMETRIC)     :  P -4 21 M       

 LATTICE PARAMETERS  (ANGSTROMS AND DEGREES) - CONVENTIONAL CELL
        A           B           C        ALPHA        BETA       GAMMA
     5.56500     5.56500     4.68400    90.00000    90.00000    90.00000


 NUMBER OF IRREDUCIBLE ATOMS IN THE CONVENTIONAL CELL:    5

 INPUT COORDINATES

 ATOM AT. N.              COORDINATES
   1   6     0.000000000000E+00  5.000000000000E-01  3.260000000000E-01
   2   8     0.000000000000E+00  5.000000000000E-01  5.953000000000E-01
   3   7     1.459000000000E-01  6.459000000000E-01  1.766000000000E-01
   4   1     2.575000000000E-01  7.575000000000E-01  2.827000000000E-01
   5   1     1.441000000000E-01  6.441000000000E-01 -3.800000000000E-02

 *******************************************************************************

 << INFORMATION >>: FROM NOW ON, ALL COORDINATES REFER TO THE PRIMITIVE CELL

 *******************************************************************************

 LATTICE PARAMETERS  (ANGSTROMS AND DEGREES) - PRIMITIVE CELL
       A          B          C        ALPHA      BETA     GAMMA        VOLUME
    5.56500    5.56500    4.68400    90.00000  90.00000  90.00000    145.059850

 COORDINATES OF THE EQUIVALENT ATOMS (FRACTIONAL UNITS)

 N. ATOM EQUIV AT. N.          X                  Y                  Z

   1   1   1    6 C     0.00000000000E+00 -5.00000000000E-01  3.26000000000E-01
   2   1   2    6 C    -5.00000000000E-01  0.00000000000E+00 -3.26000000000E-01

   3   2   1    8 O     0.00000000000E+00 -5.00000000000E-01 -4.04700000000E-01
   4   2   2    8 O    -5.00000000000E-01  0.00000000000E+00  4.04700000000E-01

   5   3   1    7 N     1.45900000000E-01 -3.54100000000E-01  1.76600000000E-01
   6   3   2    7 N    -1.45900000000E-01  3.54100000000E-01  1.76600000000E-01
   7   3   3    7 N    -3.54100000000E-01 -1.45900000000E-01 -1.76600000000E-01
   8   3   4    7 N     3.54100000000E-01  1.45900000000E-01 -1.76600000000E-01

   9   4   1    1 H     2.57500000000E-01 -2.42500000000E-01  2.82700000000E-01
  10   4   2    1 H    -2.57500000000E-01  2.42500000000E-01  2.82700000000E-01
  11   4   3    1 H    -2.42500000000E-01 -2.57500000000E-01 -2.82700000000E-01
  12   4   4    1 H     2.42500000000E-01  2.57500000000E-01 -2.82700000000E-01

  13   5   1    1 H     1.44100000000E-01 -3.55900000000E-01 -3.80000000000E-02
  14   5   2    1 H    -1.44100000000E-01  3.55900000000E-01 -3.80000000000E-02
  15   5   3    1 H    -3.55900000000E-01 -1.44100000000E-01  3.80000000000E-02
  16   5   4    1 H     3.55900000000E-01  1.44100000000E-01  3.80000000000E-02

 NUMBER OF SYMMETRY OPERATORS         :    8
 *******************************************************************************
 * GEOMETRY EDITING - INPUT COORDINATES ARE GIVEN IN ANGSTROM         
 *******************************************************************************

 GEOMETRY NOW FULLY CONSISTENT WITH THE GROUP

 GCALCO - MAX INDICES DIRECT LATTICE VECTOR    14    14    16
 NO.OF VECTORS CREATED 6999 STARS  525 RMAX   117.81283 BOHR

 GEOMETRY FOR WAVE FUNCTION - DIMENSIONALITY OF THE SYSTEM    3
 (NON PERIODIC DIRECTION: LATTICE PARAMETER FORMALLY SET TO 500)
 *******************************************************************************
 LATTICE PARAMETERS (ANGSTROMS AND DEGREES) - BOHR = 0.5291772083 ANGSTROM
 PRIMITIVE CELL - CENTRING CODE 1/0 VOLUME=   145.059850 - DENSITY  1.374 g/cm^3
         A              B              C           ALPHA      BETA       GAMMA 
     5.56500000     5.56500000     4.68400000    90.000000  90.000000  90.000000
 *******************************************************************************
 ATOMS IN THE ASYMMETRIC UNIT    5 - ATOMS IN THE UNIT CELL:   16
     ATOM                 X/A                 Y/B                 Z/C    
 *******************************************************************************
      1 T   6 C     0.000000000000E+00  5.000000000000E-01  3.260000000000E-01
      2 F   6 C    -5.000000000000E-01  0.000000000000E+00 -3.260000000000E-01
      3 T   8 O     0.000000000000E+00  5.000000000000E-01 -4.047000000000E-01
      4 F   8 O    -5.000000000000E-01  0.000000000000E+00  4.047000000000E-01
      5 T   7 N     1.459000000000E-01 -3.541000000000E-01  1.766000000000E-01
      6 F   7 N    -1.459000000000E-01  3.541000000000E-01  1.766000000000E-01
      7 F   7 N    -3.541000000000E-01 -1.459000000000E-01 -1.766000000000E-01
      8 F   7 N     3.541000000000E-01  1.459000000000E-01 -1.766000000000E-01
      9 T   1 H     2.575000000000E-01 -2.425000000000E-01  2.827000000000E-01
     10 F   1 H    -2.575000000000E-01  2.425000000000E-01  2.827000000000E-01
     11 F   1 H    -2.425000000000E-01 -2.575000000000E-01 -2.827000000000E-01
     12 F   1 H     2.425000000000E-01  2.575000000000E-01 -2.827000000000E-01
     13 T   1 H     1.441000000000E-01 -3.559000000000E-01 -3.800000000000E-02
     14 F   1 H    -1.441000000000E-01  3.559000000000E-01 -3.800000000000E-02
     15 F   1 H    -3.559000000000E-01 -1.441000000000E-01  3.800000000000E-02
     16 F   1 H     3.559000000000E-01  1.441000000000E-01  3.800000000000E-02

 T = ATOM BELONGING TO THE ASYMMETRIC UNIT

 ****    8 SYMMOPS - TRANSLATORS IN FRACTIONAL UNITS
 **** MATRICES AND TRANSLATORS IN THE CRYSTALLOGRAPHIC REFERENCE FRAME
   V INV                    ROTATION MATRICES                   TRANSLATORS
   1   1  1.00  0.00  0.00  0.00  1.00  0.00  0.00  0.00  1.00  0.00  0.00  0.00
   2   2 -1.00  0.00  0.00  0.00 -1.00  0.00  0.00  0.00  1.00  0.00  0.00  0.00
   3   3  1.00  0.00  0.00  0.00 -1.00  0.00  0.00  0.00 -1.00  0.50  0.50  0.00
   4   4 -1.00  0.00  0.00  0.00  1.00  0.00  0.00  0.00 -1.00  0.50  0.50  0.00
   5   5  0.00  1.00  0.00  1.00  0.00  0.00  0.00  0.00  1.00  0.50  0.50  0.00
   6   6  0.00 -1.00  0.00 -1.00  0.00  0.00  0.00  0.00  1.00  0.50  0.50  0.00
   7   8  0.00 -1.00  0.00  1.00  0.00  0.00  0.00  0.00 -1.00  0.00  0.00  0.00
   8   7  0.00  1.00  0.00 -1.00  0.00  0.00  0.00  0.00 -1.00  0.00  0.00  0.00

 DIRECT LATTICE VECTORS CARTESIAN COMPONENTS (ANGSTROM)
          X                    Y                    Z
   0.556500000000E+01   0.000000000000E+00   0.000000000000E+00
   0.000000000000E+00   0.556500000000E+01   0.000000000000E+00
   0.000000000000E+00   0.000000000000E+00   0.468400000000E+01


 CARTESIAN COORDINATES - PRIMITIVE CELL
 *******************************************************************************
 *      ATOM          X(ANGSTROM)         Y(ANGSTROM)         Z(ANGSTROM)
 *******************************************************************************
    1     6 C     0.000000000000E+00  2.782500000000E+00  1.526984000000E+00
    2     6 C     2.782500000000E+00  0.000000000000E+00 -1.526984000000E+00
    3     8 O     0.000000000000E+00  2.782500000000E+00 -1.895614800000E+00
    4     8 O     2.782500000000E+00  0.000000000000E+00  1.895614800000E+00
    5     7 N     8.119335000000E-01 -1.970566500000E+00  8.271944000000E-01
    6     7 N    -8.119335000000E-01  1.970566500000E+00  8.271944000000E-01
    7     7 N    -1.970566500000E+00 -8.119335000000E-01 -8.271944000000E-01
    8     7 N     1.970566500000E+00  8.119335000000E-01 -8.271944000000E-01
    9     1 H     1.432987500000E+00 -1.349512500000E+00  1.324166800000E+00
   10     1 H    -1.432987500000E+00  1.349512500000E+00  1.324166800000E+00
   11     1 H    -1.349512500000E+00 -1.432987500000E+00 -1.324166800000E+00
   12     1 H     1.349512500000E+00  1.432987500000E+00 -1.324166800000E+00
   13     1 H     8.019165000000E-01 -1.980583500000E+00 -1.779920000000E-01
   14     1 H    -8.019165000000E-01  1.980583500000E+00 -1.779920000000E-01
   15     1 H    -1.980583500000E+00 -8.019165000000E-01  1.779920000000E-01
   16     1 H     1.980583500000E+00  8.019165000000E-01  1.779920000000E-01

 *******************************************************************************
 LOCAL ATOMIC FUNCTIONS BASIS SET
 *******************************************************************************
   ATOM   X(AU)   Y(AU)   Z(AU)  N. TYPE  EXPONENT  S COEF   P COEF   D/F/G COEF
 *******************************************************************************
   1 C    0.000   5.258   2.886
                                  1 S  
                                         3.048E+03 1.826E-03 0.000E+00 0.000E+00
                                         4.564E+02 1.406E-02 0.000E+00 0.000E+00
                                         1.037E+02 6.876E-02 0.000E+00 0.000E+00
                                         2.923E+01 2.304E-01 0.000E+00 0.000E+00
                                         9.349E+00 4.685E-01 0.000E+00 0.000E+00
                                         3.189E+00 3.628E-01 0.000E+00 0.000E+00
                           2-     5 SP 
                                         3.665E+00-3.959E-01 2.365E-01 0.000E+00
                                         7.705E-01 1.216E+00 8.606E-01 0.000E+00
                           6-     9 SP 
                                         1.959E-01 1.000E+00 1.000E+00 0.000E+00
                          10-    14 D  
                                         8.000E-01 0.000E+00 0.000E+00 1.000E+00
   2 C    5.258   0.000  -2.886
   3 O    0.000   5.258  -3.582
                                 29 S  
                                         5.472E+03 1.832E-03 0.000E+00 0.000E+00
                                         8.178E+02 1.410E-02 0.000E+00 0.000E+00
                                         1.864E+02 6.863E-02 0.000E+00 0.000E+00
                                         5.302E+01 2.294E-01 0.000E+00 0.000E+00
                                         1.718E+01 4.664E-01 0.000E+00 0.000E+00
                                         5.912E+00 3.642E-01 0.000E+00 0.000E+00
                          30-    33 SP 
                                         7.403E+00-4.045E-01 2.446E-01 0.000E+00
                                         1.576E+00 1.222E+00 8.540E-01 0.000E+00
                          34-    37 SP 
                                         3.737E-01 1.000E+00 1.000E+00 0.000E+00
                          38-    42 D  
                                         8.000E-01 0.000E+00 0.000E+00 1.000E+00
   4 O    5.258   0.000   3.582
   5 N    1.534  -3.724   1.563
                                 57 S  
                                         4.150E+03 1.845E-03 0.000E+00 0.000E+00
                                         6.201E+02 1.416E-02 0.000E+00 0.000E+00
                                         1.417E+02 6.863E-02 0.000E+00 0.000E+00
                                         4.034E+01 2.286E-01 0.000E+00 0.000E+00
                                         1.303E+01 4.662E-01 0.000E+00 0.000E+00
                                         4.470E+00 3.657E-01 0.000E+00 0.000E+00
                          58-    61 SP 
                                         5.425E+00-4.133E-01 2.380E-01 0.000E+00
                                         1.149E+00 1.224E+00 8.590E-01 0.000E+00
                          62-    65 SP 
                                         2.832E-01 1.000E+00 1.000E+00 0.000E+00
                          66-    70 D  
                                         8.000E-01 0.000E+00 0.000E+00 1.000E+00
   6 N   -1.534   3.724   1.563
   7 N   -3.724  -1.534  -1.563
   8 N    3.724   1.534  -1.563
   9 H    2.708  -2.550   2.502
                                113 S  
                                         5.447E+00 1.563E-01 0.000E+00 0.000E+00
                                         8.245E-01 9.047E-01 0.000E+00 0.000E+00
                                114 S  
                                         1.832E-01 1.000E+00 0.000E+00 0.000E+00
                         115-   117 P  
                                         1.100E+00 0.000E+00 1.000E+00 0.000E+00
  10 H   -2.708   2.550   2.502
  11 H   -2.550  -2.708  -2.502
  12 H    2.550   2.708  -2.502
  13 H    1.515  -3.743  -0.336
  14 H   -1.515   3.743  -0.336
  15 H   -3.743  -1.515   0.336
  16 H    3.743   1.515   0.336
 INFORMATION **** SET_MPP **** PCRYSTAL CALCULATION
 INFORMATION **** READM2 **** NEW DEFAULT: FOCK/KS MATRIX MIXING SET TO 30 %
 INFORMATION **** READM2 **** NEW DEFAULT: FULL DIRECT SCF MODE
 INFORMATION **** READM2 **** NEW DEFAULT: COULOMB BIPOLAR BUFFER SET TO 32 Mb
 INFORMATION **** READM2 **** NEW DEFAULT: EXCHANGE BIPOLAR BUFFER SET TO 32 Mb
 INFORMATION **** TOLDEE **** SCF TOL ON TOTAL ENERGY SET TO           7
 *******************************************************************************
 N. OF ATOMS PER CELL        16  COULOMB OVERLAP TOL         (T1) 10**   -6
 NUMBER OF SHELLS            56  COULOMB PENETRATION TOL     (T2) 10**   -6
 NUMBER OF AO               152  EXCHANGE OVERLAP TOL        (T3) 10**   -6
 N. OF ELECTRONS PER CELL    64  EXCHANGE PSEUDO OVP (F(G))  (T4) 10**   -6
 CORE ELECTRONS PER CELL     16  EXCHANGE PSEUDO OVP (P(G))  (T5) 10**  -12
 N. OF SYMMETRY OPERATORS     8  POLE ORDER IN MONO ZONE                  4
 *******************************************************************************
 TYPE OF CALCULATION :  RESTRICTED CLOSED SHELL
 HARTREE-FOCK HAMILTONIAN

 CAPPA:IS1  2;IS2  2;IS3  2; K PTS MONK NET   6; SYMMOPS:K SPACE  16;G SPACE   8

 *******************************************************************************
 MAX NUMBER OF SCF CYCLES      50  CONVERGENCE ON DELTAP        10**-17
 WEIGHT OF F(I) IN F(I+1)      30% CONVERGENCE ON ENERGY        10**- 7
 SHRINK. FACT.(MONKH.)    2  2  2  NUMBER OF K POINTS IN THE IBZ      6
 SHRINKING FACTOR(GILAT NET)    2  NUMBER OF K POINTS(GILAT NET)      6
 *******************************************************************************
 *** K POINTS COORDINATES (OBLIQUE COORDINATES IN UNITS OF IS =  2)
   1-R(  0  0  0)   2-R(  1  0  0)   3-R(  1  1  0)   4-R(  0  0  1)
   5-R(  1  0  1)   6-R(  1  1  1)

 DIRECT LATTICE VECTORS COMPON. (A.U.)     RECIP. LATTICE VECTORS COMPON. (A.U.) 
        X            Y            Z              X            Y            Z
   10.5163259    0.0000000    0.0000000      0.5974696    0.0000000    0.0000000
    0.0000000   10.5163259    0.0000000      0.0000000    0.5974696    0.0000000
    0.0000000    0.0000000    8.8514772      0.0000000    0.0000000    0.7098460

 DISK SPACE FOR EIGENVECTORS (FTN 10)      138624 REALS

 SYMMETRY ADAPTION OF THE BLOCH FUNCTIONS ENABLED
 TTTTTTTTTTTTTTTTTTTTTTTTTTTTTT gordsh1     TELAPSE        0.06 TCPU        0.04

 MATRIX SIZE: P(G)  108364, F(G)   18098, P(G) IRR   10907, F(G) IRR    4245
 MAX G-VECTOR INDEX FOR 1- AND 2-ELECTRON INTEGRALS  81

 TTTTTTTTTTTTTTTTTTTTTTTTTTTTTT INPUT       TELAPSE        0.06 TCPU        0.04

 NEIGHBORS OF THE NON-EQUIVALENT ATOMS

 N = NUMBER OF NEIGHBORS AT DISTANCE R
    ATOM  N     R/ANG      R/AU   NEIGHBORS (ATOM LABELS AND CELL INDICES)
   1 C    1     1.2614     2.3837    3 O    0 0 1
   1 C    2     1.3447     2.5411    5 N    0 1 0    6 N    0 0 0
   1 C    2     2.0367     3.8488    9 H    0 1 0   10 H    0 0 0
   1 C    2     2.0477     3.8696   13 H    0 1 0   14 H    0 0 0
   1 C    2     2.6461     5.0004   11 H    0 1 1   12 H    0 0 1
   1 C    2     3.1089     5.8750   15 H    0 1 0   16 H    0 0 0

   3 O    1     1.2614     2.3837    1 C    0 0-1
   3 O    2     1.9922     3.7647   11 H    0 1 0   12 H    0 0 0
   3 O    2     2.0582     3.8895   13 H    0 1 0   14 H    0 0 0
   3 O    2     2.2726     4.2946    5 N    0 1-1    6 N    0 0-1
   3 O    2     2.5002     4.7246    9 H    0 1-1   10 H    0 0-1
   3 O    2     2.9550     5.5842    5 N    0 1 0    6 N    0 0 0

   5 N    1     1.0053     1.8997   13 H    0 0 0
   5 N    1     1.0092     1.9070    9 H    0 0 0
   5 N    1     1.3447     2.5411    1 C    0-1 0
   5 N    1     2.2726     4.2946    3 O    0-1 1
   5 N    1     2.2965     4.3397    6 N    0-1 0
   5 N    1     2.4939     4.7127   14 H    0-1 0

   9 H    1     1.0092     1.9070    5 N    0 0 0
   9 H    1     1.7473     3.3019   13 H    0 0 0
   9 H    1     1.9922     3.7647    4 O    0 0 0
   9 H    1     2.0367     3.8488    1 C    0-1 0
   9 H    2     2.4984     4.7214   15 H    1 0 0   16 H    0 0 0
   9 H    1     2.5002     4.7246    3 O    0-1 1

  13 H    1     1.0053     1.8997    5 N    0 0 0
  13 H    1     1.7473     3.3019    9 H    0 0 0
  13 H    1     2.0477     3.8696    1 C    0-1 0
  13 H    1     2.0582     3.8895    3 O    0-1 0
  13 H    1     2.2682     4.2862   14 H    0-1 0
  13 H    1     2.4939     4.7127    6 N    0-1 0


 SYMMETRY ALLOWED INTERNAL DEGREE(S) OF FREEDOM:   8
 TTTTTTTTTTTTTTTTTTTTTTTTTTTTTT SYMM        TELAPSE        0.07 TCPU        0.04
 TTTTTTTTTTTTTTTTTTTTTTTTTTTTTT INT_SCREEN  TELAPSE        0.07 TCPU        0.04
 TTTTTTTTTTTTTTTTTTTTTTTTTTTTTT INT_CALC    TELAPSE        0.08 TCPU        0.05
 EEEEEEEEEE INT_CALC TERMINATION  DATE 04 08 2025 TIME 17:28:02.1

 *******************************************************************************
 TEST12 - UREA BULK BASE 6-21 + POLARIZATION                                     
 CRYSTAL - SCF - TYPE OF CALCULATION :  RESTRICTED CLOSED SHELL
 *******************************************************************************

 CAPPA:IS1  2;IS2  2;IS3  2; K PTS MONK NET   6; SYMMOPS:K SPACE  16;G SPACE   8

 TTTTTTTTTTTTTTTTTTTTTTTTTTTTTT SDIK        TELAPSE        0.08 TCPU        0.05

 AAAAAAAAAAAAAAAAAAAAAAAAAAAAAAAAAAAAAAAAAAAAAAAAAAAAAAAAAAAAAAAAAAAAAAAAAAAAAAA
         ATOMIC WAVEFUNCTION(S)


 NUCLEAR CHARGE  6.0  SYMMETRY SPECIES            S    P
 N. ELECTRONS    6.0  NUMBER OF PRIMITIVE GTOS    9    3
                      NUMBER OF CONTRACTED GTOS   3    2
                      NUMBER OF CLOSED SHELLS     2    0
                      OPEN SHELL OCCUPATION       0    2

  ZNUC  SCFIT    TOTAL HF ENERGY   KINETIC ENERGY   VIRIAL THEOREM             ACCURACY
   6.0     9    -3.765831823E+01  3.765320062E+01 -2.000135914E+00  1.5E-06

 NUCLEAR CHARGE  8.0  SYMMETRY SPECIES            S    P
 N. ELECTRONS    8.0  NUMBER OF PRIMITIVE GTOS    9    3
                      NUMBER OF CONTRACTED GTOS   3    2
                      NUMBER OF CLOSED SHELLS     2    0
                      OPEN SHELL OCCUPATION       0    4

  ZNUC  SCFIT    TOTAL HF ENERGY   KINETIC ENERGY   VIRIAL THEOREM             ACCURACY
   8.0    10    -7.469910437E+01  7.469021188E+01 -2.000119058E+00  4.4E-06

 NUCLEAR CHARGE  7.0  SYMMETRY SPECIES            S    P
 N. ELECTRONS    7.0  NUMBER OF PRIMITIVE GTOS    9    3
                      NUMBER OF CONTRACTED GTOS   3    2
                      NUMBER OF CLOSED SHELLS     2    0
                      OPEN SHELL OCCUPATION       0    3

  ZNUC  SCFIT    TOTAL HF ENERGY   KINETIC ENERGY   VIRIAL THEOREM             ACCURACY
   7.0     8    -5.434075198E+01  5.432977783E+01 -2.000201992E+00  3.0E-06

 NUCLEAR CHARGE  1.0  SYMMETRY SPECIES            S
 N. ELECTRONS    1.0  NUMBER OF PRIMITIVE GTOS    3
                      NUMBER OF CONTRACTED GTOS   2
                      NUMBER OF CLOSED SHELLS     0
                      OPEN SHELL OCCUPATION       1

  ZNUC  SCFIT    TOTAL HF ENERGY   KINETIC ENERGY   VIRIAL THEOREM             ACCURACY
   1.0     1    -4.961986360E-01  5.144743151E-01 -1.964476984E+00  9.9E-17

 AAAAAAAAAAAAAAAAAAAAAAAAAAAAAAAAAAAAAAAAAAAAAAAAAAAAAAAAAAAAAAAAAAAAAAAAAAAAAAA

 CHARGE NORMALIZATION FACTOR   1.00000000
 TOTAL ATOMIC CHARGES:
   6.0000000   6.0000000   8.0000000   8.0000000   7.0000000   7.0000000
   7.0000000   7.0000000   1.0000000   1.0000000   1.0000000   1.0000000
   1.0000000   1.0000000   1.0000000   1.0000000
 TTTTTTTTTTTTTTTTTTTTTTTTTTTTTT MOQGAD      TELAPSE        0.09 TCPU        0.06
 TTTTTTTTTTTTTTTTTTTTTTTTTTTTTT SHELLXN     TELAPSE        2.08 TCPU        2.05
 TTTTTTTTTTTTTTTTTTTTTTTTTTTTTT MONMO3      TELAPSE        2.18 TCPU        2.15
 CYC   0 ETOT(AU) -4.500026138195E+02 DETOT -4.50E+02 tst  0.00E+00 PX  1.00E+00
 TTTTTTTTTTTTTTTTTTTTTTTTTTTTTT DIIS        TELAPSE        2.18 TCPU        2.15
 TTTTTTTTTTTTTTTTTTTTTTTTTTTTTT FDIK        TELAPSE        2.18 TCPU        2.15
 INSULATING STATE
 TOP OF VALENCE BANDS -    BAND     32; K    1; EIG -2.7358164E-01 AU
 BOTTOM OF VIRTUAL BANDS - BAND     33; K    1; EIG  7.9920254E-02 AU
 DIRECT ENERGY BAND GAP:   9.6193 eV
 TTTTTTTTTTTTTTTTTTTTTTTTTTTTTT PDIG        TELAPSE        2.19 TCPU        2.16
 CHARGE NORMALIZATION FACTOR   1.00000000
 TOTAL ATOMIC CHARGES:
   4.6093562   4.6093562   8.9787727   8.9787727   7.7761433   7.7761433
   7.7761433   7.7761433   0.7149629   0.7149629   0.7149629   0.7149629
   0.7148294   0.7148294   0.7148294   0.7148294
 TTTTTTTTTTTTTTTTTTTTTTTTTTTTTT MOQGAD      TELAPSE        2.19 TCPU        2.16
 TTTTTTTTTTTTTTTTTTTTTTTTTTTTTT SHELLXN     TELAPSE        4.26 TCPU        4.23
 TTTTTTTTTTTTTTTTTTTTTTTTTTTTTT MONMO3      TELAPSE        4.36 TCPU        4.33
 CYC   1 ETOT(AU) -4.475369147871E+02 DETOT  2.47E+00 tst  0.00E+00 PX  1.00E+00
 TTTTTTTTTTTTTTTTTTTTTTTTTTTTTT DIIS        TELAPSE        4.36 TCPU        4.33
 DIIS TEST: 0.89910E+00 AT SCF   CYCLE   1 - MIX   30 %
 TTTTTTTTTTTTTTTTTTTTTTTTTTTTTT FDIK        TELAPSE        4.36 TCPU        4.33
 INSULATING STATE
 TOP OF VALENCE BANDS -    BAND     32; K    1; EIG -3.5468526E-01 AU
 BOTTOM OF VIRTUAL BANDS - BAND     33; K    1; EIG  1.6990344E-01 AU
 DIRECT ENERGY BAND GAP:  14.2748 eV
 TTTTTTTTTTTTTTTTTTTTTTTTTTTTTT PDIG        TELAPSE        4.36 TCPU        4.33
 CHARGE NORMALIZATION FACTOR   1.00000000
 TOTAL ATOMIC CHARGES:
   4.8992340   4.8992340   8.7250192   8.7250192   7.7374274   7.7374274
   7.7374274   7.7374274   0.7258694   0.7258694   0.7258694   0.7258694
   0.7245766   0.7245766   0.7245766   0.7245766
 TTTTTTTTTTTTTTTTTTTTTTTTTTTTTT MOQGAD      TELAPSE        4.37 TCPU        4.34
 TTTTTTTTTTTTTTTTTTTTTTTTTTTTTT SHELLXN     TELAPSE        6.44 TCPU        6.41
 TTTTTTTTTTTTTTTTTTTTTTTTTTTTTT MONMO3      TELAPSE        6.53 TCPU        6.50
 CYC   2 ETOT(AU) -4.476643991640E+02 DETOT -1.27E-01 tst  2.95E-03 PX  7.55E-02
 TTTTTTTTTTTTTTTTTTTTTTTTTTTTTT DIIS        TELAPSE        6.54 TCPU        6.51
 DIIS TEST: 0.95671E-01 AT SCF   CYCLE   2 - DIIS ACTIVE - HISTORY:     2 CYCLES
 TTTTTTTTTTTTTTTTTTTTTTTTTTTTTT FDIK        TELAPSE        6.54 TCPU        6.51
 INSULATING STATE
 TOP OF VALENCE BANDS -    BAND     32; K    1; EIG -3.8217478E-01 AU
 BOTTOM OF VIRTUAL BANDS - BAND     33; K    1; EIG  2.0063537E-01 AU
 DIRECT ENERGY BAND GAP:  15.8591 eV
 TTTTTTTTTTTTTTTTTTTTTTTTTTTTTT PDIG        TELAPSE        6.54 TCPU        6.51
 CHARGE NORMALIZATION FACTOR   1.00000000
 TOTAL ATOMIC CHARGES:
   4.8013989   4.8013989   8.8014397   8.8014397   7.7407042   7.7407042
   7.7407042   7.7407042   0.7290867   0.7290867   0.7290867   0.7290867
   0.7287898   0.7287898   0.7287898   0.7287898
 TTTTTTTTTTTTTTTTTTTTTTTTTTTTTT MOQGAD      TELAPSE        6.55 TCPU        6.52
 TTTTTTTTTTTTTTTTTTTTTTTTTTTTTT SHELLXN     TELAPSE        8.58 TCPU        8.55
 TTTTTTTTTTTTTTTTTTTTTTTTTTTTTT MONMO3      TELAPSE        8.68 TCPU        8.65
 CYC   3 ETOT(AU) -4.476793152223E+02 DETOT -1.49E-02 tst  3.21E-04 PX  2.91E-02
 TTTTTTTTTTTTTTTTTTTTTTTTTTTTTT DIIS        TELAPSE        8.69 TCPU        8.66
 DIIS TEST: 0.10039E-01 AT SCF   CYCLE   3 - DIIS ACTIVE - HISTORY:     3 CYCLES
 TTTTTTTTTTTTTTTTTTTTTTTTTTTTTT FDIK        TELAPSE        8.69 TCPU        8.66
 INSULATING STATE
 TOP OF VALENCE BANDS -    BAND     32; K    1; EIG -3.8596607E-01 AU
 BOTTOM OF VIRTUAL BANDS - BAND     33; K    1; EIG  2.0703012E-01 AU
 DIRECT ENERGY BAND GAP:  16.1363 eV
 TTTTTTTTTTTTTTTTTTTTTTTTTTTTTT PDIG        TELAPSE        8.69 TCPU        8.66
 CHARGE NORMALIZATION FACTOR   1.00000000
 TOTAL ATOMIC CHARGES:
   4.7999229   4.7999229   8.7757722   8.7757722   7.7560077   7.7560077
   7.7560077   7.7560077   0.7281941   0.7281941   0.7281941   0.7281941
   0.7279506   0.7279506   0.7279506   0.7279506
 TTTTTTTTTTTTTTTTTTTTTTTTTTTTTT MOQGAD      TELAPSE        8.70 TCPU        8.67
 TTTTTTTTTTTTTTTTTTTTTTTTTTTTTT SHELLXN     TELAPSE       10.79 TCPU       10.76
 TTTTTTTTTTTTTTTTTTTTTTTTTTTTTT MONMO3      TELAPSE       10.89 TCPU       10.86
 CYC   4 ETOT(AU) -4.476810880164E+02 DETOT -1.77E-03 tst  6.81E-05 PX  8.65E-03
 TTTTTTTTTTTTTTTTTTTTTTTTTTTTTT DIIS        TELAPSE       10.89 TCPU       10.86
 DIIS TEST: 0.85232E-03 AT SCF   CYCLE   4 - DIIS ACTIVE - HISTORY:     4 CYCLES
 TTTTTTTTTTTTTTTTTTTTTTTTTTTTTT FDIK        TELAPSE       10.90 TCPU       10.87
 INSULATING STATE
 TOP OF VALENCE BANDS -    BAND     32; K    1; EIG -3.8352632E-01 AU
 BOTTOM OF VIRTUAL BANDS - BAND     33; K    1; EIG  2.0757133E-01 AU
 DIRECT ENERGY BAND GAP:  16.0846 eV
 TTTTTTTTTTTTTTTTTTTTTTTTTTTTTT PDIG        TELAPSE       10.90 TCPU       10.87
 CHARGE NORMALIZATION FACTOR   1.00000000
 TOTAL ATOMIC CHARGES:
   4.8043189   4.8043189   8.7810261   8.7810261   7.7487489   7.7487489
   7.7487489   7.7487489   0.7295143   0.7295143   0.7295143   0.7295143
   0.7290643   0.7290643   0.7290643   0.7290643
 TTTTTTTTTTTTTTTTTTTTTTTTTTTTTT MOQGAD      TELAPSE       10.91 TCPU       10.88
 TTTTTTTTTTTTTTTTTTTTTTTTTTTTTT SHELLXN     TELAPSE       13.00 TCPU       12.98
 TTTTTTTTTTTTTTTTTTTTTTTTTTTTTT MONMO3      TELAPSE       13.11 TCPU       13.08
 CYC   5 ETOT(AU) -4.476812240969E+02 DETOT -1.36E-04 tst  3.65E-06 PX  3.48E-03
 TTTTTTTTTTTTTTTTTTTTTTTTTTTTTT DIIS        TELAPSE       13.11 TCPU       13.08
 DIIS TEST: 0.43158E-04 AT SCF   CYCLE   5 - DIIS ACTIVE - HISTORY:     5 CYCLES
 TTTTTTTTTTTTTTTTTTTTTTTTTTTTTT FDIK        TELAPSE       13.11 TCPU       13.08
 INSULATING STATE
 TOP OF VALENCE BANDS -    BAND     32; K    1; EIG -3.8428964E-01 AU
 BOTTOM OF VIRTUAL BANDS - BAND     33; K    1; EIG  2.0745658E-01 AU
 DIRECT ENERGY BAND GAP:  16.1022 eV
 TTTTTTTTTTTTTTTTTTTTTTTTTTTTTT PDIG        TELAPSE       13.11 TCPU       13.08
 CHARGE NORMALIZATION FACTOR   1.00000000
 TOTAL ATOMIC CHARGES:
   4.8038816   4.8038816   8.7797379   8.7797379   7.7492903   7.7492903
   7.7492903   7.7492903   0.7296702   0.7296702   0.7296702   0.7296702
   0.7292298   0.7292298   0.7292298   0.7292298
 TTTTTTTTTTTTTTTTTTTTTTTTTTTTTT MOQGAD      TELAPSE       13.12 TCPU       13.09
 TTTTTTTTTTTTTTTTTTTTTTTTTTTTTT SHELLXN     TELAPSE       15.15 TCPU       15.12
 TTTTTTTTTTTTTTTTTTTTTTTTTTTTTT MONMO3      TELAPSE       15.25 TCPU       15.22
 CYC   6 ETOT(AU) -4.476812435726E+02 DETOT -1.95E-05 tst  1.40E-06 PX  7.92E-04
 TTTTTTTTTTTTTTTTTTTTTTTTTTTTTT DIIS        TELAPSE       15.25 TCPU       15.22
 DIIS TEST: 0.41718E-05 AT SCF   CYCLE   6 - DIIS ACTIVE - HISTORY:     6 CYCLES
 TTTTTTTTTTTTTTTTTTTTTTTTTTTTTT FDIK        TELAPSE       15.25 TCPU       15.22
 INSULATING STATE
 TOP OF VALENCE BANDS -    BAND     32; K    1; EIG -3.8441508E-01 AU
 BOTTOM OF VIRTUAL BANDS - BAND     33; K    1; EIG  2.0746009E-01 AU
 DIRECT ENERGY BAND GAP:  16.1057 eV
 TTTTTTTTTTTTTTTTTTTTTTTTTTTTTT PDIG        TELAPSE       15.26 TCPU       15.23
 CHARGE NORMALIZATION FACTOR   1.00000000
 TOTAL ATOMIC CHARGES:
   4.8039520   4.8039520   8.7795727   8.7795727   7.7490333   7.7490333
   7.7490333   7.7490333   0.7298448   0.7298448   0.7298448   0.7298448
   0.7293596   0.7293596   0.7293596   0.7293596
 TTTTTTTTTTTTTTTTTTTTTTTTTTTTTT MOQGAD      TELAPSE       15.26 TCPU       15.23
 TTTTTTTTTTTTTTTTTTTTTTTTTTTTTT SHELLXN     TELAPSE       17.32 TCPU       17.30
 TTTTTTTTTTTTTTTTTTTTTTTTTTTTTT MONMO3      TELAPSE       17.43 TCPU       17.39
 CYC   7 ETOT(AU) -4.476812459571E+02 DETOT -2.38E-06 tst  2.99E-07 PX  4.02E-04
 TTTTTTTTTTTTTTTTTTTTTTTTTTTTTT DIIS        TELAPSE       17.43 TCPU       17.40
 DIIS TEST: 0.20742E-06 AT SCF   CYCLE   7 - DIIS ACTIVE - HISTORY:     7 CYCLES
 TTTTTTTTTTTTTTTTTTTTTTTTTTTTTT FDIK        TELAPSE       17.43 TCPU       17.40
 INSULATING STATE
 TOP OF VALENCE BANDS -    BAND     32; K    1; EIG -3.8440557E-01 AU
 BOTTOM OF VIRTUAL BANDS - BAND     33; K    1; EIG  2.0747790E-01 AU
 DIRECT ENERGY BAND GAP:  16.1060 eV
 TTTTTTTTTTTTTTTTTTTTTTTTTTTTTT PDIG        TELAPSE       17.43 TCPU       17.40
 CHARGE NORMALIZATION FACTOR   1.00000000
 TOTAL ATOMIC CHARGES:
   4.8039276   4.8039276   8.7795358   8.7795358   7.7489878   7.7489878
   7.7489878   7.7489878   0.7298908   0.7298908   0.7298908   0.7298908
   0.7293897   0.7293897   0.7293897   0.7293897
 TTTTTTTTTTTTTTTTTTTTTTTTTTTTTT MOQGAD      TELAPSE       17.44 TCPU       17.41
 TTTTTTTTTTTTTTTTTTTTTTTTTTTTTT SHELLXN     TELAPSE       19.54 TCPU       19.51
 TTTTTTTTTTTTTTTTTTTTTTTTTTTTTT MONMO3      TELAPSE       19.64 TCPU       19.61
 CYC   8 ETOT(AU) -4.476812459356E+02 DETOT  2.15E-08 tst  1.84E-08 PX  9.13E-05
 TTTTTTTTTTTTTTTTTTTTTTTTTTTTTT DIIS        TELAPSE       19.64 TCPU       19.61
 DIIS TEST: 0.13743E-07 AT SCF   CYCLE   8 - DIIS ACTIVE - HISTORY:     8 CYCLES
 TTTTTTTTTTTTTTTTTTTTTTTTTTTTTT FDIK        TELAPSE       19.64 TCPU       19.61
 INSULATING STATE
 TOP OF VALENCE BANDS -    BAND     32; K    1; EIG -3.8441552E-01 AU
 BOTTOM OF VIRTUAL BANDS - BAND     33; K    1; EIG  2.0747544E-01 AU
 DIRECT ENERGY BAND GAP:  16.1062 eV
 TTTTTTTTTTTTTTTTTTTTTTTTTTTTTT PDIG        TELAPSE       19.65 TCPU       19.62
 CHARGE NORMALIZATION FACTOR   1.00000000
 TOTAL ATOMIC CHARGES:
   4.8039129   4.8039129   8.7795430   8.7795430   7.7489950   7.7489950
   7.7489950   7.7489950   0.7298925   0.7298925   0.7298925   0.7298925
   0.7293845   0.7293845   0.7293845   0.7293845
 TTTTTTTTTTTTTTTTTTTTTTTTTTTTTT MOQGAD      TELAPSE       19.65 TCPU       19.62
 TTTTTTTTTTTTTTTTTTTTTTTTTTTTTT SHELLXN     TELAPSE       21.69 TCPU       21.66
 +++ ENERGIES IN A.U. +++
 ::: EXT EL-POLE                                  -5.9275585933721E+02
 ::: EXT EL-SPHEROPOLE                             7.1541035584441E+00
 ::: BIELET ZONE E-E                               6.8312290935791E+02
 ::: TOTAL E-E                                     9.7521153579141E+01
 ::: TOTAL E-N + N-E                              -9.1688701817607E+02
 ::: TOTAL N-N                                    -7.5336138747023E+01
 ::: KINETIC ENERGY                                4.4702075734531E+02
 ::: TOTAL   ENERGY                               -4.4768124599864E+02
 ::: VIRIAL COEFFICIENT                            9.9926177805476E-01
 TTTTTTTTTTTTTTTTTTTTTTTTTTTTTT MONMO3      TELAPSE       21.79 TCPU       21.76
 CYC   9 ETOT(AU) -4.476812459986E+02 DETOT -6.31E-08 tst  6.13E-10 PX  9.13E-05

 == SCF ENDED - CONVERGENCE ON ENERGY      E(AU) -4.4768124599864E+02 CYCLES   9

 TOTAL ENERGY(HF)(AU)(   9) -4.4768124599864E+02 DE-6.3E-08 tst 6.1E-10 PX 9.1E-05
 EIGENVECTORS IN FORTRAN UNIT 10
 TTTTTTTTTTTTTTTTTTTTTTTTTTTTTT END         TELAPSE       21.80 TCPU       21.77
 EEEEEEEEEE TERMINATION  DATE 04 08 2025 TIME 17:28:23.8
