
         
 *******************************************************************************
 *                                                                             *
 *                               CRYSTAL23                                     *
 *                      public : 1.0.1 - October 2022                          *
 *                       HTTP://WWW.CRYSTAL.UNITO.IT                           *
 *                                                                             *
 *                              MAIN AUTHORS                                   *
 *                                                                             *
 *  R. DOVESI(1,11), V.R. SAUNDERS(2), C. ROETTI(1,11), R. ORLANDO(1,11),      *
 *  C.M. ZICOVICH-WILSON(1,3), F. PASCALE(4), B. CIVALLERI(1,11),              *
 *  K. DOLL(5), N.M. HARRISON(6), I.J. BUSH(7), Ph. D'ARCO(8),                 *
 *  M. LLUNELL(9), M. CAUSA'(10), Y. NOEL(8), L. MASCHIO(1,11), A. ERBA(1,11)  *
 *  M. RE'RAT(14), S. CASASSA(1,11), B.G. SEARLE(2), J.K. DESMARAIS(1)         *
 *                                                                             *
 *        CONTRIBUTIONS TO THE CODE HAVE ALSO BEEN GIVEN BY                    *
 *                                                                             *
 *  M. FERRABONE(1,11), M. DE LA PIERRE(1,11), M. FERRERO(1,11),               *
 *  J. BAIMA(1,11), E. ALBANESE(1,11), M.F. PEINTINGER(12), R. BAST(13),       *
 *  B. KIRTMAN(15), V. LACIVITA(1,11), R. DEMICHELIS(1,16)                     *
 *  G. BRANDEBURG(17), S. SALUSTRO(1,11), G. SANSONE(1,11)                     *
 *  M.T. RUGGIERO(18), L.E. DAGA(1), L. DONA'(1), A. COSSARD(1)                *
 *                                                                             *
 * (1) THEORETICAL CHEMISTRY GROUP - UNIVERSITA' DI TORINO - TORINO (ITALY)    *
 * (2) SCIENTIFIC COMPUTING DEPARTMENT - STFC DARESBURY (UK)                   *
 * (3) UNIVERSIDAD AUTONOMA DEL ESTADO DE MORELOS - CUERNAVACA (MEXICO)        *
 * (4) UNIVERSITE' DE LORRAINE - NANCY (FRANCE)                                *
 * (5) UNIVERSITAET STUTTGART- STUTTGART (GERMANY)                             *
 * (6) IMPERIAL COLLEGE - LONDON (UK)                                          *
 * (7) SCIENTIFIC COMPUTING DEPARTMENT - STFC RAL (UK)                         *
 * (8) UPMC - SORBONNE UNIVERSITES - PARIS (FRANCE)                            *
 * (9) UNIVERSIDAD DE BARCELONA - BARCELONA (SPAIN)                            *
 *(10) UNIVERSITA' DI NAPOLI "FEDERICO II" - NAPOLI (ITALY)                    *
 *(11) NIS - NANOSTRUCTURED INTERFACES AND SURFACES - TORINO (ITALY)           *
 *(12) MPI FUER CHEMISCHE ENERGIEKONVERSION - MUELHEIM AN DER RUHR (GERMANY)   *
 *(13) UNIVERSITY OF TROMSO - TROMSO (NORWAY)                                  *
 *(14) UNIVERSITE' DE PAU ET DES PAYS DE L'ADOUR - PAU (FRANCE)                *
 *(15) UNIVERSITY OF CALIFORNIA SANTA BARBARA - SANTA BARBARA (USA)            *
 *(16) CURTIN UNIVERSITY - PERTH (AUSTRALIA)                                   *
 *(17) UNIVERSITY COLLEGE LONDON - LONDON (UK)                                 *
 *(18) UNIVERSITY OF VERMONT - BURLINGTON (USA)                                *
 *                                                                             *
 *******************************************************************************
 EEEEEEEEEE STARTING  DATE 06 08 2025 TIME 17:54:40.8
 INFORMATION **** SET_MPP **** PCRYSTAL CALCULATION

 *******************************************************************************
 TEST12 - UREA BULK BASE 6-21 + POLARIZATION                                     
 CRYSTAL - PROPERTIES - TYPE OF CALCULATION :  RESTRICTED CLOSED SHELL
 *******************************************************************************
 HARTREE-FOCK HAMILTONIAN
 *******************************************************************************
 N. OF ATOMS PER CELL         8 COULOMB OVERLAP TOL          (T1) 10**   -6
 NUMBER OF SHELLS            28 COULOMB PENETRATION TOL      (T2) 10**   -6
 NUMBER OF AO                76 EXCHANGE OVERLAP TOL         (T3) 10**   -6
 N. OF ELECTRONS PER CELL    32 EXCHANGE PSEUDO OVP (F(G))   (T4) 10**   -6
 CORE ELECTRONS PER CELL      8 EXCHANGE PSEUDO OVP (P(G))   (T5) 10**  -12
 N. OF SYMMETRY OPERATORS     4 POLE ORDER IN MONO ZONE                   4
 *******************************************************************************
   ATOM N.AT.  SHELL    X(A)      Y(A)      Z(A)      EXAD       N.ELECT.
 *******************************************************************************
    1    6 C     4     0.000     0.000     0.000   8.000E-01       4.821
    2    8 O     4     0.000     0.000     1.261   8.000E-01       8.735
    3    7 N     4     0.000     1.148    -0.700   8.000E-01       7.716
    4    7 N     4     0.000    -1.148    -0.700   8.000E-01       7.716
    5    1 H     3     0.000     2.027    -0.203   1.100E+00       0.734
    6    1 H     3     0.000    -2.027    -0.203   1.100E+00       0.734
    7    1 H     3     0.000     1.134    -1.705   1.100E+00       0.772
    8    1 H     3     0.000    -1.134    -1.705   1.100E+00       0.772
 *******************************************************************************
 DE(K)                   0.000E+00  ENERGY LEVEL SHIFTING        0.00000
 TOTAL ENERGY -2.2378754820639E+02  CONVERGENCE ON ENER       -1.380E-08
 KIN. ENERGY   2.2350030204573E+02  VIR. COEFF.           9.99357805E-01
 N. OF SCF CYCLES               10  FERMI ENERGY              -0.367E+00
 WEIGHT OF F(I) IN F(I+1)      30
 *******************************************************************************
 TTTTTTTTTTTTTTTTTTTTTTTTTTTTTT gordsh1     TELAPSE        0.07 TCPU        0.04

 MATRIX SIZE: P(G)    5716, F(G)    2651, P(G) IRR    1758, F(G) IRR    1635
 MAX G-VECTOR INDEX FOR 1- AND 2-ELECTRON INTEGRALS   1


 CAPPA:IS1  1;IS2  1;IS3  1; K PTS MONK NET   1; SYMMOPS:K SPACE   8;G SPACE   4

 *******************************************************************************
 *                                                                             *
 *                              T O P O N D  2 0 2 1                                                                *
 *                                                                             *
 *           AN ELECTRON DENSITY TOPOLOGICAL ANALYSIS PROGRAM FOR              *
 *                 SYSTEMS PERIODIC IN N (N=0-3) DIMENSIONS                    *
 *                                                                             *
 *               USER MANUAL BY CARLO GATTI AND SILVIA CASASSA                 *
 *                                                                             *
 *            CNR-ISTM, ISTITUTO DI SCIENZE E TECNOLOGIE MOLECOLARI            *
 *                   VIA GOLGI 19  - I-20133 MILANO - ITALIA                   *
 *                     E-MAIL: c.gatti@istm.cnr.it                             *
 *                                                                             *
 *******************************************************************************

  TOPOND PARAMETER 

  LIM016 [INF24]        =       1000
  LIM015 [INF20]        =         28
  LIM035 [LIM016*INF5]  =       1000
  NTOMAX [LIM016*INF5]  =       8009
  INF79  [INF79]        =          8
  MAXGSTAR [INF2*INF5]  =          8

 *******************************************************************************
 *******************************************************************************
 *                                                                             *
 *               TOPOND GENERALISATION TO F AND G ATOMIC ORBITALS              *
 *                                                                             *
 *                     BY ALESSANDRO COSSARD, JACQUES DESMARAIS                *
 *                            AND ALESSANDRO ERBA                              *
 *                                                                             *
 *      PLEASE CITE: A. Cossard, J. K. Desmarais, S.Casassa, C. Gatti and      *
 *            A. Erba, J. Phys. Chem. Lett., 12, 1862-1868 (2021)              *
 *                                                                             *
 *******************************************************************************

CRYSTAL INFORMATION ON THE REFERENCE SYSTEM:

 *******************************************************************************
 N. OF ATOMS PER CELL        8  COULOMB OVERLAP TOL         (T1) 10** -6
 NUMBER OF SHELLS           28  COULOMB PENETRATION TOL     (T2) 10** -6
 NUMBER OF AO               76  EXCHANGE OVERLAP TOL        (T3) 10** -6
 N. OF ELECTRONS PER CELL    32 EXCHANGE PSEUDO OVP (F(G))  (T4) 10** -6
 CORE ELECTRONS PER CELL     8  EXCHANGE PSEUDO OVP (P(G))  (T5) 10**-12
 N. OF SYMMETRY OPERATORS    4  POLE ORDER IN MONO ZONE                4
 *******************************************************************************
  ATOM  SHEL    X(AU)     Y(AU)     Z(AU)
 *******************************************************************************
    6 C    4     0.000     0.000     0.000
    8 O    4     0.000     0.000     2.384
    7 N    4     0.000     2.170    -1.322
    7 N    4     0.000    -2.170    -1.322
    1 H    3     0.000     3.830    -0.383
    1 H    3     0.000    -3.830    -0.383
    1 H    3     0.000     2.143    -3.222
    1 H    3     0.000    -2.143    -3.222
 *******************************************************************************
 DE(K)                  0.000E+00  CONVERGENCE ON EIGENVALUES   10**-17
 WEIGHT OF F(I) IN F(I+1)     30%  CONVERGENCE ON ENERGY        10**- 7
 TOTAL ENERGY     -2.23787548E+02  FERMI ENERGY              -3.672E-01
 KIN. ENERGY       2.23500302E+02  VIR. COEFF.           9.99357805E-01
 *******************************************************************************

 NEIGHBORS OF THE NON-EQUIVALENT ATOMS

 N = NUMBER OF NEIGHBORS AT DISTANCE R
    ATOM  N     R/ANG      R/AU   NEIGHBORS (ATOM LABELS AND CELL INDICES)

   1 C    1     1.2614     2.3837   2 O    0 0 0
   1 C    2     1.3447     2.5411   3 N    0 0 0   4 N    0 0 0
   1 C    2     2.0367     3.8488   5 H    0 0 0   6 H    0 0 0
   1 C    2     2.0477     3.8696   7 H    0 0 0   8 H    0 0 0

   2 O    1     1.2614     2.3837   1 C    0 0 0
   2 O    2     2.2726     4.2946   3 N    0 0 0   4 N    0 0 0
   2 O    2     2.5002     4.7246   5 H    0 0 0   6 H    0 0 0
   2 O    2     3.1758     6.0013   7 H    0 0 0   8 H    0 0 0

   3 N    1     1.0053     1.8997   7 H    0 0 0
   3 N    1     1.0092     1.9070   5 H    0 0 0
   3 N    1     1.3447     2.5411   1 C    0 0 0
   3 N    1     2.2726     4.2946   2 O    0 0 0
   3 N    1     2.2965     4.3397   4 N    0 0 0
   3 N    1     2.4939     4.7127   8 H    0 0 0

   5 H    1     1.0092     1.9070   3 N    0 0 0
   5 H    1     1.7473     3.3019   7 H    0 0 0
   5 H    1     2.0367     3.8488   1 C    0 0 0
   5 H    1     2.5002     4.7246   2 O    0 0 0
   5 H    1     3.2135     6.0726   4 N    0 0 0
   5 H    1     3.4994     6.6130   8 H    0 0 0

   7 H    1     1.0053     1.8997   3 N    0 0 0
   7 H    1     1.7473     3.3019   5 H    0 0 0
   7 H    1     2.0477     3.8696   1 C    0 0 0
   7 H    1     2.2682     4.2862   8 H    0 0 0
   7 H    1     2.4939     4.7127   4 N    0 0 0
   7 H    1     3.1758     6.0013   2 O    0 0 0

 *******************************************************************************
             ATOMIC BASIN INTEGRATION : ATOMIC CLUSTERS CONSIDERED
 *******************************************************************************
 CLUSTERS AROUND EACH OF THE NON-EQUIVALENT ATOMS

 NON-EQUIV. ATOM       1 C (N.      1), CLUSTER OF      7 ATOMS
 NEW  OLD     AT. NU.         COORD.(AU)             DISTANCE (ANG)
     1       2       8        0.000   0.000   2.384          1.261
     2       3       7        0.000   2.170  -1.322          1.345
     3       4       7        0.000  -2.170  -1.322          1.345
     4       5       1        0.000   3.830  -0.383          2.037
     5       6       1        0.000  -3.830  -0.383          2.037
     6       7       1        0.000   2.143  -3.222          2.048
     7       8       1        0.000  -2.143  -3.222          2.048

 NON-EQUIV. ATOM       2 O (N.      2), CLUSTER OF      7 ATOMS
 NEW  OLD     AT. NU.         COORD.(AU)             DISTANCE (ANG)
     1       1       6        0.000   0.000   0.000          1.261
     2       3       7        0.000   2.170  -1.322          2.273
     3       4       7        0.000  -2.170  -1.322          2.273
     4       5       1        0.000   3.830  -0.383          2.500
     5       6       1        0.000  -3.830  -0.383          2.500
     6       7       1        0.000   2.143  -3.222          3.176
     7       8       1        0.000  -2.143  -3.222          3.176

 NON-EQUIV. ATOM       3 N (N.      3), CLUSTER OF      7 ATOMS
 NEW  OLD     AT. NU.         COORD.(AU)             DISTANCE (ANG)
     1       7       1        0.000   2.143  -3.222          1.005
     2       5       1        0.000   3.830  -0.383          1.009
     3       1       6        0.000   0.000   0.000          1.345
     4       2       8        0.000   0.000   2.384          2.273
     5       4       7        0.000  -2.170  -1.322          2.296
     6       8       1        0.000  -2.143  -3.222          2.494
     7       6       1        0.000  -3.830  -0.383          3.213

 NON-EQUIV. ATOM       4 H (N.      5), CLUSTER OF      7 ATOMS
 NEW  OLD     AT. NU.         COORD.(AU)             DISTANCE (ANG)
     1       3       7        0.000   2.170  -1.322          1.009
     2       7       1        0.000   2.143  -3.222          1.747
     3       1       6        0.000   0.000   0.000          2.037
     4       2       8        0.000   0.000   2.384          2.500
     5       4       7        0.000  -2.170  -1.322          3.213
     6       8       1        0.000  -2.143  -3.222          3.499
     7       6       1        0.000  -3.830  -0.383          4.053

 NON-EQUIV. ATOM       5 H (N.      7), CLUSTER OF      7 ATOMS
 NEW  OLD     AT. NU.         COORD.(AU)             DISTANCE (ANG)
     1       3       7        0.000   2.170  -1.322          1.005
     2       5       1        0.000   3.830  -0.383          1.747
     3       1       6        0.000   0.000   0.000          2.048
     4       8       1        0.000  -2.143  -3.222          2.268
     5       4       7        0.000  -2.170  -1.322          2.494
     6       2       8        0.000   0.000   2.384          3.176
     7       6       1        0.000  -3.830  -0.383          3.499



 *************** A T O M I C   B A S I N   I N T E G R A T I O N ***************


 COMPUTATIONAL CONDITIONS:
                           ATOM                                      : C    1
                           METHOD                                    :     0
                           NVI                                       :    10
                           IRSUR                                     :     0
                           IWSUR                                     :     1
                           NUMBER OF RADIAL POINTS INSIDE BETA SPHERE:   120
                           NUMBER OF PHI POINTS INSIDE BETA SPHERE   :    48
                           NUMBER OF THETA POINTS INSIDE BETA SPHERE :    32
                           NUMBER OF PHI POINTS OUTSIDE BETA SPHERE  :    64
                           NUMBER OF THETA POINTS OUTSIDE BETA SPHERE:    48
                           BETA SPHERE RADIUS (ANG)                  :    0.42
                           SIZ (ANG)                                 :    5.00
                           TIN (ANG)                                 :    8.00

 PROMEGA SURFACE STEP    :
                           STEP SIZE IN TRACING GRAD(RHO) TRAJEC.    :    0.025
                           ORDER OF A.B.M PREDICTOR CORRECTOR METHOD :     6
                           SMALL STEPS PER REGULAR STEP IN A.B.M.    :     5
                           PRECISION IN ATOMIC SURFACE DETERM. (AU)  :    0.001
                           SECONDARY INTERSECTION SEARCH             :     N


 ORIG.(AU)  (X  Y  Z)     :  0.0000E+00  0.0000E+00  0.0000E+00

 PATHE2: OSCILLATION OF PATHS
 PATHE2: THE ATTRACTOR OF THIS PATH WAS PROBABLY NOT INCLUDED IN THE CLUSTER:
 INCREASE CLUSTER SIZE
 PATHE2: OSCILLATION OF PATHS
 PATHE2: THE ATTRACTOR OF THIS PATH WAS PROBABLY NOT INCLUDED IN THE CLUSTER:
 INCREASE CLUSTER SIZE
 PATHE2: OSCILLATION OF PATHS
 PATHE2: THE ATTRACTOR OF THIS PATH WAS PROBABLY NOT INCLUDED IN THE CLUSTER:
 INCREASE CLUSTER SIZE
 PATHE2: OSCILLATION OF PATHS
 PATHE2: THE ATTRACTOR OF THIS PATH WAS PROBABLY NOT INCLUDED IN THE CLUSTER:
 INCREASE CLUSTER SIZE
 PATHE2: OSCILLATION OF PATHS
 PATHE2: THE ATTRACTOR OF THIS PATH WAS PROBABLY NOT INCLUDED IN THE CLUSTER:
 INCREASE CLUSTER SIZE
 PATHE2: OSCILLATION OF PATHS
 PATHE2: THE ATTRACTOR OF THIS PATH WAS PROBABLY NOT INCLUDED IN THE CLUSTER:
 INCREASE CLUSTER SIZE
 PATHE2: OSCILLATION OF PATHS
 PATHE2: THE ATTRACTOR OF THIS PATH WAS PROBABLY NOT INCLUDED IN THE CLUSTER:
 INCREASE CLUSTER SIZE
 PATHE2: OSCILLATION OF PATHS
 PATHE2: THE ATTRACTOR OF THIS PATH WAS PROBABLY NOT INCLUDED IN THE CLUSTER:
 INCREASE CLUSTER SIZE
 PATHE2: OSCILLATION OF PATHS
 PATHE2: THE ATTRACTOR OF THIS PATH WAS PROBABLY NOT INCLUDED IN THE CLUSTER:
 INCREASE CLUSTER SIZE
 PATHE2: OSCILLATION OF PATHS
 PATHE2: THE ATTRACTOR OF THIS PATH WAS PROBABLY NOT INCLUDED IN THE CLUSTER:
 INCREASE CLUSTER SIZE
 PATHE2: OSCILLATION OF PATHS
 PATHE2: THE ATTRACTOR OF THIS PATH WAS PROBABLY NOT INCLUDED IN THE CLUSTER:
 INCREASE CLUSTER SIZE
 PATHE2: OSCILLATION OF PATHS
 PATHE2: THE ATTRACTOR OF THIS PATH WAS PROBABLY NOT INCLUDED IN THE CLUSTER:
 INCREASE CLUSTER SIZE
 PATHE2: OSCILLATION OF PATHS
 PATHE2: THE ATTRACTOR OF THIS PATH WAS PROBABLY NOT INCLUDED IN THE CLUSTER:
 INCREASE CLUSTER SIZE
 PATHE2: OSCILLATION OF PATHS
 PATHE2: THE ATTRACTOR OF THIS PATH WAS PROBABLY NOT INCLUDED IN THE CLUSTER:
 INCREASE CLUSTER SIZE
 PATHE2: OSCILLATION OF PATHS
 PATHE2: THE ATTRACTOR OF THIS PATH WAS PROBABLY NOT INCLUDED IN THE CLUSTER:
 INCREASE CLUSTER SIZE
 PATHE2: OSCILLATION OF PATHS
 PATHE2: THE ATTRACTOR OF THIS PATH WAS PROBABLY NOT INCLUDED IN THE CLUSTER:
 INCREASE CLUSTER SIZE
 PATHE2: OSCILLATION OF PATHS
 PATHE2: THE ATTRACTOR OF THIS PATH WAS PROBABLY NOT INCLUDED IN THE CLUSTER:
 INCREASE CLUSTER SIZE
 PATHE2: OSCILLATION OF PATHS
 PATHE2: THE ATTRACTOR OF THIS PATH WAS PROBABLY NOT INCLUDED IN THE CLUSTER:
 INCREASE CLUSTER SIZE
 PATHE2: OSCILLATION OF PATHS
 PATHE2: THE ATTRACTOR OF THIS PATH WAS PROBABLY NOT INCLUDED IN THE CLUSTER:
 INCREASE CLUSTER SIZE
 PATHE2: OSCILLATION OF PATHS
 PATHE2: THE ATTRACTOR OF THIS PATH WAS PROBABLY NOT INCLUDED IN THE CLUSTER:
 INCREASE CLUSTER SIZE
 PATHE2: OSCILLATION OF PATHS
 PATHE2: THE ATTRACTOR OF THIS PATH WAS PROBABLY NOT INCLUDED IN THE CLUSTER:
 INCREASE CLUSTER SIZE
 PATHE2: OSCILLATION OF PATHS
 PATHE2: THE ATTRACTOR OF THIS PATH WAS PROBABLY NOT INCLUDED IN THE CLUSTER:
 INCREASE CLUSTER SIZE
 PATHE2: OSCILLATION OF PATHS
 PATHE2: THE ATTRACTOR OF THIS PATH WAS PROBABLY NOT INCLUDED IN THE CLUSTER:
 INCREASE CLUSTER SIZE
 PATHE2: OSCILLATION OF PATHS
 PATHE2: THE ATTRACTOR OF THIS PATH WAS PROBABLY NOT INCLUDED IN THE CLUSTER:
 INCREASE CLUSTER SIZE
 PATHE2: OSCILLATION OF PATHS
 PATHE2: THE ATTRACTOR OF THIS PATH WAS PROBABLY NOT INCLUDED IN THE CLUSTER:
 INCREASE CLUSTER SIZE
 PATHE2: OSCILLATION OF PATHS
 PATHE2: THE ATTRACTOR OF THIS PATH WAS PROBABLY NOT INCLUDED IN THE CLUSTER:
 INCREASE CLUSTER SIZE
 PATHE2: OSCILLATION OF PATHS
 PATHE2: THE ATTRACTOR OF THIS PATH WAS PROBABLY NOT INCLUDED IN THE CLUSTER:
 INCREASE CLUSTER SIZE
 PATHE2: OSCILLATION OF PATHS
 PATHE2: THE ATTRACTOR OF THIS PATH WAS PROBABLY NOT INCLUDED IN THE CLUSTER:
 INCREASE CLUSTER SIZE
 PATHE2: OSCILLATION OF PATHS
 PATHE2: THE ATTRACTOR OF THIS PATH WAS PROBABLY NOT INCLUDED IN THE CLUSTER:
 INCREASE CLUSTER SIZE
 PATHE2: OSCILLATION OF PATHS
 PATHE2: THE ATTRACTOR OF THIS PATH WAS PROBABLY NOT INCLUDED IN THE CLUSTER:
 INCREASE CLUSTER SIZE
 PATHE2: OSCILLATION OF PATHS
 PATHE2: THE ATTRACTOR OF THIS PATH WAS PROBABLY NOT INCLUDED IN THE CLUSTER:
 INCREASE CLUSTER SIZE
 PATHE2: OSCILLATION OF PATHS
 PATHE2: THE ATTRACTOR OF THIS PATH WAS PROBABLY NOT INCLUDED IN THE CLUSTER:
 INCREASE CLUSTER SIZE
 THE FEELER RAYS ARE DONE
 TTTTTTTTTTTTTTTTTTTTTTTTTTTTTT ATBP        TELAPSE       10.97 TCPU       10.94
 NUMBER OF ATTRACTORS REACHED   :    3
 ATTRACT. ID IN THE ORIG.CLUSTER:    1  2  3
 NUMBER OF PSEUDOATOMS REACHED   :    0
 PSEUDOATOMS. ID 
 PATHE2: OSCILLATION OF PATHS
 PATHE2: THE ATTRACTOR OF THIS PATH WAS PROBABLY NOT INCLUDED IN THE CLUSTER:
 INCREASE CLUSTER SIZE
 PATHE2: OSCILLATION OF PATHS
 PATHE2: THE ATTRACTOR OF THIS PATH WAS PROBABLY NOT INCLUDED IN THE CLUSTER:
 INCREASE CLUSTER SIZE
 PATHE2: OSCILLATION OF PATHS
 PATHE2: THE ATTRACTOR OF THIS PATH WAS PROBABLY NOT INCLUDED IN THE CLUSTER:
 INCREASE CLUSTER SIZE
 PATHE2: OSCILLATION OF PATHS
 PATHE2: THE ATTRACTOR OF THIS PATH WAS PROBABLY NOT INCLUDED IN THE CLUSTER:
 INCREASE CLUSTER SIZE
 PATHE2: OSCILLATION OF PATHS
 PATHE2: THE ATTRACTOR OF THIS PATH WAS PROBABLY NOT INCLUDED IN THE CLUSTER:
 INCREASE CLUSTER SIZE
 PATHE2: OSCILLATION OF PATHS
 PATHE2: THE ATTRACTOR OF THIS PATH WAS PROBABLY NOT INCLUDED IN THE CLUSTER:
 INCREASE CLUSTER SIZE
 PATHE2: OSCILLATION OF PATHS
 PATHE2: THE ATTRACTOR OF THIS PATH WAS PROBABLY NOT INCLUDED IN THE CLUSTER:
 INCREASE CLUSTER SIZE
 PATHE2: OSCILLATION OF PATHS
 PATHE2: THE ATTRACTOR OF THIS PATH WAS PROBABLY NOT INCLUDED IN THE CLUSTER:
 INCREASE CLUSTER SIZE
 PATHE2: OSCILLATION OF PATHS
 PATHE2: THE ATTRACTOR OF THIS PATH WAS PROBABLY NOT INCLUDED IN THE CLUSTER:
 INCREASE CLUSTER SIZE
 PATHE2: OSCILLATION OF PATHS
 PATHE2: THE ATTRACTOR OF THIS PATH WAS PROBABLY NOT INCLUDED IN THE CLUSTER:
 INCREASE CLUSTER SIZE
 PATHE2: OSCILLATION OF PATHS
 PATHE2: THE ATTRACTOR OF THIS PATH WAS PROBABLY NOT INCLUDED IN THE CLUSTER:
 INCREASE CLUSTER SIZE
 PATHE2: OSCILLATION OF PATHS
 PATHE2: THE ATTRACTOR OF THIS PATH WAS PROBABLY NOT INCLUDED IN THE CLUSTER:
 INCREASE CLUSTER SIZE
 PATHE2: OSCILLATION OF PATHS
 PATHE2: THE ATTRACTOR OF THIS PATH WAS PROBABLY NOT INCLUDED IN THE CLUSTER:
 INCREASE CLUSTER SIZE
 PATHE2: OSCILLATION OF PATHS
 PATHE2: THE ATTRACTOR OF THIS PATH WAS PROBABLY NOT INCLUDED IN THE CLUSTER:
 INCREASE CLUSTER SIZE
 PATHE2: OSCILLATION OF PATHS
 PATHE2: THE ATTRACTOR OF THIS PATH WAS PROBABLY NOT INCLUDED IN THE CLUSTER:
 INCREASE CLUSTER SIZE
 PATHE2: OSCILLATION OF PATHS
 PATHE2: THE ATTRACTOR OF THIS PATH WAS PROBABLY NOT INCLUDED IN THE CLUSTER:
 INCREASE CLUSTER SIZE
 PATHE2: OSCILLATION OF PATHS
 PATHE2: THE ATTRACTOR OF THIS PATH WAS PROBABLY NOT INCLUDED IN THE CLUSTER:
 INCREASE CLUSTER SIZE
 PATHE2: OSCILLATION OF PATHS
 PATHE2: THE ATTRACTOR OF THIS PATH WAS PROBABLY NOT INCLUDED IN THE CLUSTER:
 INCREASE CLUSTER SIZE
 PATHE2: OSCILLATION OF PATHS
 PATHE2: THE ATTRACTOR OF THIS PATH WAS PROBABLY NOT INCLUDED IN THE CLUSTER:
 INCREASE CLUSTER SIZE
 PATHE2: OSCILLATION OF PATHS
 PATHE2: THE ATTRACTOR OF THIS PATH WAS PROBABLY NOT INCLUDED IN THE CLUSTER:
 INCREASE CLUSTER SIZE
 PATHE2: OSCILLATION OF PATHS
 PATHE2: THE ATTRACTOR OF THIS PATH WAS PROBABLY NOT INCLUDED IN THE CLUSTER:
 INCREASE CLUSTER SIZE
 PATHE2: OSCILLATION OF PATHS
 PATHE2: THE ATTRACTOR OF THIS PATH WAS PROBABLY NOT INCLUDED IN THE CLUSTER:
 INCREASE CLUSTER SIZE
 PATHE2: OSCILLATION OF PATHS
 PATHE2: THE ATTRACTOR OF THIS PATH WAS PROBABLY NOT INCLUDED IN THE CLUSTER:
 INCREASE CLUSTER SIZE
 PATHE2: OSCILLATION OF PATHS
 PATHE2: THE ATTRACTOR OF THIS PATH WAS PROBABLY NOT INCLUDED IN THE CLUSTER:
 INCREASE CLUSTER SIZE
 PATHE2: OSCILLATION OF PATHS
 PATHE2: THE ATTRACTOR OF THIS PATH WAS PROBABLY NOT INCLUDED IN THE CLUSTER:
 INCREASE CLUSTER SIZE
 PATHE2: OSCILLATION OF PATHS
 PATHE2: THE ATTRACTOR OF THIS PATH WAS PROBABLY NOT INCLUDED IN THE CLUSTER:
 INCREASE CLUSTER SIZE
 PATHE2: OSCILLATION OF PATHS
 PATHE2: THE ATTRACTOR OF THIS PATH WAS PROBABLY NOT INCLUDED IN THE CLUSTER:
 INCREASE CLUSTER SIZE
 PATHE2: OSCILLATION OF PATHS
 PATHE2: THE ATTRACTOR OF THIS PATH WAS PROBABLY NOT INCLUDED IN THE CLUSTER:
 INCREASE CLUSTER SIZE
 PATHE2: OSCILLATION OF PATHS
 PATHE2: THE ATTRACTOR OF THIS PATH WAS PROBABLY NOT INCLUDED IN THE CLUSTER:
 INCREASE CLUSTER SIZE
 PATHE2: OSCILLATION OF PATHS
 PATHE2: THE ATTRACTOR OF THIS PATH WAS PROBABLY NOT INCLUDED IN THE CLUSTER:
 INCREASE CLUSTER SIZE
 PATHE2: OSCILLATION OF PATHS
 PATHE2: THE ATTRACTOR OF THIS PATH WAS PROBABLY NOT INCLUDED IN THE CLUSTER:
 INCREASE CLUSTER SIZE
 PATHE2: OSCILLATION OF PATHS
 PATHE2: THE ATTRACTOR OF THIS PATH WAS PROBABLY NOT INCLUDED IN THE CLUSTER:
 INCREASE CLUSTER SIZE
 PATHE2: OSCILLATION OF PATHS
 PATHE2: THE ATTRACTOR OF THIS PATH WAS PROBABLY NOT INCLUDED IN THE CLUSTER:
 INCREASE CLUSTER SIZE
 PATHE2: OSCILLATION OF PATHS
 PATHE2: THE ATTRACTOR OF THIS PATH WAS PROBABLY NOT INCLUDED IN THE CLUSTER:
 INCREASE CLUSTER SIZE
 PATHE2: OSCILLATION OF PATHS
 PATHE2: THE ATTRACTOR OF THIS PATH WAS PROBABLY NOT INCLUDED IN THE CLUSTER:
 INCREASE CLUSTER SIZE
 PATHE2: OSCILLATION OF PATHS
 PATHE2: THE ATTRACTOR OF THIS PATH WAS PROBABLY NOT INCLUDED IN THE CLUSTER:
 INCREASE CLUSTER SIZE
 PATHE2: OSCILLATION OF PATHS
 PATHE2: THE ATTRACTOR OF THIS PATH WAS PROBABLY NOT INCLUDED IN THE CLUSTER:
 INCREASE CLUSTER SIZE
 PATHE2: OSCILLATION OF PATHS
 PATHE2: THE ATTRACTOR OF THIS PATH WAS PROBABLY NOT INCLUDED IN THE CLUSTER:
 INCREASE CLUSTER SIZE
 PATHE2: OSCILLATION OF PATHS
 PATHE2: THE ATTRACTOR OF THIS PATH WAS PROBABLY NOT INCLUDED IN THE CLUSTER:
 INCREASE CLUSTER SIZE
 PATHE2: OSCILLATION OF PATHS
 PATHE2: THE ATTRACTOR OF THIS PATH WAS PROBABLY NOT INCLUDED IN THE CLUSTER:
 INCREASE CLUSTER SIZE
 PATHE2: OSCILLATION OF PATHS
 PATHE2: THE ATTRACTOR OF THIS PATH WAS PROBABLY NOT INCLUDED IN THE CLUSTER:
 INCREASE CLUSTER SIZE
 PATHE2: OSCILLATION OF PATHS
 PATHE2: THE ATTRACTOR OF THIS PATH WAS PROBABLY NOT INCLUDED IN THE CLUSTER:
 INCREASE CLUSTER SIZE
 PATHE2: OSCILLATION OF PATHS
 PATHE2: THE ATTRACTOR OF THIS PATH WAS PROBABLY NOT INCLUDED IN THE CLUSTER:
 INCREASE CLUSTER SIZE
 PATHE2: OSCILLATION OF PATHS
 PATHE2: THE ATTRACTOR OF THIS PATH WAS PROBABLY NOT INCLUDED IN THE CLUSTER:
 INCREASE CLUSTER SIZE
 PATHE2: OSCILLATION OF PATHS
 PATHE2: THE ATTRACTOR OF THIS PATH WAS PROBABLY NOT INCLUDED IN THE CLUSTER:
 INCREASE CLUSTER SIZE
 PATHE2: OSCILLATION OF PATHS
 PATHE2: THE ATTRACTOR OF THIS PATH WAS PROBABLY NOT INCLUDED IN THE CLUSTER:
 INCREASE CLUSTER SIZE
 PATHE2: OSCILLATION OF PATHS
 PATHE2: THE ATTRACTOR OF THIS PATH WAS PROBABLY NOT INCLUDED IN THE CLUSTER:
 INCREASE CLUSTER SIZE
 PATHE2: OSCILLATION OF PATHS
 PATHE2: THE ATTRACTOR OF THIS PATH WAS PROBABLY NOT INCLUDED IN THE CLUSTER:
 INCREASE CLUSTER SIZE
 PATHE2: OSCILLATION OF PATHS
 PATHE2: THE ATTRACTOR OF THIS PATH WAS PROBABLY NOT INCLUDED IN THE CLUSTER:
 INCREASE CLUSTER SIZE
 PATHE2: OSCILLATION OF PATHS
 PATHE2: THE ATTRACTOR OF THIS PATH WAS PROBABLY NOT INCLUDED IN THE CLUSTER:
 INCREASE CLUSTER SIZE
 PATHE2: OSCILLATION OF PATHS
 PATHE2: THE ATTRACTOR OF THIS PATH WAS PROBABLY NOT INCLUDED IN THE CLUSTER:
 INCREASE CLUSTER SIZE
 PATHE2: OSCILLATION OF PATHS
 PATHE2: THE ATTRACTOR OF THIS PATH WAS PROBABLY NOT INCLUDED IN THE CLUSTER:
 INCREASE CLUSTER SIZE
 PATHE2: OSCILLATION OF PATHS
 PATHE2: THE ATTRACTOR OF THIS PATH WAS PROBABLY NOT INCLUDED IN THE CLUSTER:
 INCREASE CLUSTER SIZE
 PATHE2: OSCILLATION OF PATHS
 PATHE2: THE ATTRACTOR OF THIS PATH WAS PROBABLY NOT INCLUDED IN THE CLUSTER:
 INCREASE CLUSTER SIZE
 PATHE2: OSCILLATION OF PATHS
 PATHE2: THE ATTRACTOR OF THIS PATH WAS PROBABLY NOT INCLUDED IN THE CLUSTER:
 INCREASE CLUSTER SIZE
 PATHE2: OSCILLATION OF PATHS
 PATHE2: THE ATTRACTOR OF THIS PATH WAS PROBABLY NOT INCLUDED IN THE CLUSTER:
 INCREASE CLUSTER SIZE
 PATHE2: OSCILLATION OF PATHS
 PATHE2: THE ATTRACTOR OF THIS PATH WAS PROBABLY NOT INCLUDED IN THE CLUSTER:
 INCREASE CLUSTER SIZE
 PATHE2: OSCILLATION OF PATHS
 PATHE2: THE ATTRACTOR OF THIS PATH WAS PROBABLY NOT INCLUDED IN THE CLUSTER:
 INCREASE CLUSTER SIZE
 PATHE2: OSCILLATION OF PATHS
 PATHE2: THE ATTRACTOR OF THIS PATH WAS PROBABLY NOT INCLUDED IN THE CLUSTER:
 INCREASE CLUSTER SIZE
 PATHE2: OSCILLATION OF PATHS
 PATHE2: THE ATTRACTOR OF THIS PATH WAS PROBABLY NOT INCLUDED IN THE CLUSTER:
 INCREASE CLUSTER SIZE
 PATHE2: OSCILLATION OF PATHS
 PATHE2: THE ATTRACTOR OF THIS PATH WAS PROBABLY NOT INCLUDED IN THE CLUSTER:
 INCREASE CLUSTER SIZE
 PATHE2: OSCILLATION OF PATHS
 PATHE2: THE ATTRACTOR OF THIS PATH WAS PROBABLY NOT INCLUDED IN THE CLUSTER:
 INCREASE CLUSTER SIZE
 PATHE2: OSCILLATION OF PATHS
 PATHE2: THE ATTRACTOR OF THIS PATH WAS PROBABLY NOT INCLUDED IN THE CLUSTER:
 INCREASE CLUSTER SIZE
 PATHE2: OSCILLATION OF PATHS
 PATHE2: THE ATTRACTOR OF THIS PATH WAS PROBABLY NOT INCLUDED IN THE CLUSTER:
 INCREASE CLUSTER SIZE
 PATHE2: OSCILLATION OF PATHS
 PATHE2: THE ATTRACTOR OF THIS PATH WAS PROBABLY NOT INCLUDED IN THE CLUSTER:
 INCREASE CLUSTER SIZE
 PATHE2: OSCILLATION OF PATHS
 PATHE2: THE ATTRACTOR OF THIS PATH WAS PROBABLY NOT INCLUDED IN THE CLUSTER:
 INCREASE CLUSTER SIZE
 PATHE2: OSCILLATION OF PATHS
 PATHE2: THE ATTRACTOR OF THIS PATH WAS PROBABLY NOT INCLUDED IN THE CLUSTER:
 INCREASE CLUSTER SIZE
 PATHE2: OSCILLATION OF PATHS
 PATHE2: THE ATTRACTOR OF THIS PATH WAS PROBABLY NOT INCLUDED IN THE CLUSTER:
 INCREASE CLUSTER SIZE
 PATHE2: OSCILLATION OF PATHS
 PATHE2: THE ATTRACTOR OF THIS PATH WAS PROBABLY NOT INCLUDED IN THE CLUSTER:
 INCREASE CLUSTER SIZE
 PATHE2: OSCILLATION OF PATHS
 PATHE2: THE ATTRACTOR OF THIS PATH WAS PROBABLY NOT INCLUDED IN THE CLUSTER:
 INCREASE CLUSTER SIZE
 PATHE2: OSCILLATION OF PATHS
 PATHE2: THE ATTRACTOR OF THIS PATH WAS PROBABLY NOT INCLUDED IN THE CLUSTER:
 INCREASE CLUSTER SIZE
 PATHE2: OSCILLATION OF PATHS
 PATHE2: THE ATTRACTOR OF THIS PATH WAS PROBABLY NOT INCLUDED IN THE CLUSTER:
 INCREASE CLUSTER SIZE
 PATHE2: OSCILLATION OF PATHS
 PATHE2: THE ATTRACTOR OF THIS PATH WAS PROBABLY NOT INCLUDED IN THE CLUSTER:
 INCREASE CLUSTER SIZE
 PATHE2: OSCILLATION OF PATHS
 PATHE2: THE ATTRACTOR OF THIS PATH WAS PROBABLY NOT INCLUDED IN THE CLUSTER:
 INCREASE CLUSTER SIZE
 PATHE2: OSCILLATION OF PATHS
 PATHE2: THE ATTRACTOR OF THIS PATH WAS PROBABLY NOT INCLUDED IN THE CLUSTER:
 INCREASE CLUSTER SIZE
 PATHE2: OSCILLATION OF PATHS
 PATHE2: THE ATTRACTOR OF THIS PATH WAS PROBABLY NOT INCLUDED IN THE CLUSTER:
 INCREASE CLUSTER SIZE
 PATHE2: OSCILLATION OF PATHS
 PATHE2: THE ATTRACTOR OF THIS PATH WAS PROBABLY NOT INCLUDED IN THE CLUSTER:
 INCREASE CLUSTER SIZE
 PATHE2: OSCILLATION OF PATHS
 PATHE2: THE ATTRACTOR OF THIS PATH WAS PROBABLY NOT INCLUDED IN THE CLUSTER:
 INCREASE CLUSTER SIZE
 PATHE2: OSCILLATION OF PATHS
 PATHE2: THE ATTRACTOR OF THIS PATH WAS PROBABLY NOT INCLUDED IN THE CLUSTER:
 INCREASE CLUSTER SIZE
 PATHE2: OSCILLATION OF PATHS
 PATHE2: THE ATTRACTOR OF THIS PATH WAS PROBABLY NOT INCLUDED IN THE CLUSTER:
 INCREASE CLUSTER SIZE
 PATHE2: OSCILLATION OF PATHS
 PATHE2: THE ATTRACTOR OF THIS PATH WAS PROBABLY NOT INCLUDED IN THE CLUSTER:
 INCREASE CLUSTER SIZE
 PATHE2: OSCILLATION OF PATHS
 PATHE2: THE ATTRACTOR OF THIS PATH WAS PROBABLY NOT INCLUDED IN THE CLUSTER:
 INCREASE CLUSTER SIZE
 PATHE2: OSCILLATION OF PATHS
 PATHE2: THE ATTRACTOR OF THIS PATH WAS PROBABLY NOT INCLUDED IN THE CLUSTER:
 INCREASE CLUSTER SIZE
 PATHE2: OSCILLATION OF PATHS
 PATHE2: THE ATTRACTOR OF THIS PATH WAS PROBABLY NOT INCLUDED IN THE CLUSTER:
 INCREASE CLUSTER SIZE
 PATHE2: OSCILLATION OF PATHS
 PATHE2: THE ATTRACTOR OF THIS PATH WAS PROBABLY NOT INCLUDED IN THE CLUSTER:
 INCREASE CLUSTER SIZE
 PATHE2: OSCILLATION OF PATHS
 PATHE2: THE ATTRACTOR OF THIS PATH WAS PROBABLY NOT INCLUDED IN THE CLUSTER:
 INCREASE CLUSTER SIZE
 PATHE2: OSCILLATION OF PATHS
 PATHE2: THE ATTRACTOR OF THIS PATH WAS PROBABLY NOT INCLUDED IN THE CLUSTER:
 INCREASE CLUSTER SIZE
 PATHE2: OSCILLATION OF PATHS
 PATHE2: THE ATTRACTOR OF THIS PATH WAS PROBABLY NOT INCLUDED IN THE CLUSTER:
 INCREASE CLUSTER SIZE
 PATHE2: OSCILLATION OF PATHS
 PATHE2: THE ATTRACTOR OF THIS PATH WAS PROBABLY NOT INCLUDED IN THE CLUSTER:
 INCREASE CLUSTER SIZE
 PATHE2: OSCILLATION OF PATHS
 PATHE2: THE ATTRACTOR OF THIS PATH WAS PROBABLY NOT INCLUDED IN THE CLUSTER:
 INCREASE CLUSTER SIZE
 PATHE2: OSCILLATION OF PATHS
 PATHE2: THE ATTRACTOR OF THIS PATH WAS PROBABLY NOT INCLUDED IN THE CLUSTER:
 INCREASE CLUSTER SIZE
 PATHE2: OSCILLATION OF PATHS
 PATHE2: THE ATTRACTOR OF THIS PATH WAS PROBABLY NOT INCLUDED IN THE CLUSTER:
 INCREASE CLUSTER SIZE
 PATHE2: OSCILLATION OF PATHS
 PATHE2: THE ATTRACTOR OF THIS PATH WAS PROBABLY NOT INCLUDED IN THE CLUSTER:
 INCREASE CLUSTER SIZE
 PATHE2: OSCILLATION OF PATHS
 PATHE2: THE ATTRACTOR OF THIS PATH WAS PROBABLY NOT INCLUDED IN THE CLUSTER:
 INCREASE CLUSTER SIZE
 PATHE2: OSCILLATION OF PATHS
 PATHE2: THE ATTRACTOR OF THIS PATH WAS PROBABLY NOT INCLUDED IN THE CLUSTER:
 INCREASE CLUSTER SIZE
 PATHE2: OSCILLATION OF PATHS
 PATHE2: THE ATTRACTOR OF THIS PATH WAS PROBABLY NOT INCLUDED IN THE CLUSTER:
 INCREASE CLUSTER SIZE
 PATHE2: OSCILLATION OF PATHS
 PATHE2: THE ATTRACTOR OF THIS PATH WAS PROBABLY NOT INCLUDED IN THE CLUSTER:
 INCREASE CLUSTER SIZE
 PATHE2: OSCILLATION OF PATHS
 PATHE2: THE ATTRACTOR OF THIS PATH WAS PROBABLY NOT INCLUDED IN THE CLUSTER:
 INCREASE CLUSTER SIZE
 PATHE2: OSCILLATION OF PATHS
 PATHE2: THE ATTRACTOR OF THIS PATH WAS PROBABLY NOT INCLUDED IN THE CLUSTER:
 INCREASE CLUSTER SIZE
 PATHE2: OSCILLATION OF PATHS
 PATHE2: THE ATTRACTOR OF THIS PATH WAS PROBABLY NOT INCLUDED IN THE CLUSTER:
 INCREASE CLUSTER SIZE
 PATHE2: OSCILLATION OF PATHS
 PATHE2: THE ATTRACTOR OF THIS PATH WAS PROBABLY NOT INCLUDED IN THE CLUSTER:
 INCREASE CLUSTER SIZE
 PATHE2: OSCILLATION OF PATHS
 PATHE2: THE ATTRACTOR OF THIS PATH WAS PROBABLY NOT INCLUDED IN THE CLUSTER:
 INCREASE CLUSTER SIZE
 PATHE2: OSCILLATION OF PATHS
 PATHE2: THE ATTRACTOR OF THIS PATH WAS PROBABLY NOT INCLUDED IN THE CLUSTER:
 INCREASE CLUSTER SIZE
 PATHE2: OSCILLATION OF PATHS
 PATHE2: THE ATTRACTOR OF THIS PATH WAS PROBABLY NOT INCLUDED IN THE CLUSTER:
 INCREASE CLUSTER SIZE
 PATHE2: OSCILLATION OF PATHS
 PATHE2: THE ATTRACTOR OF THIS PATH WAS PROBABLY NOT INCLUDED IN THE CLUSTER:
 INCREASE CLUSTER SIZE
 PATHE2: OSCILLATION OF PATHS
 PATHE2: THE ATTRACTOR OF THIS PATH WAS PROBABLY NOT INCLUDED IN THE CLUSTER:
 INCREASE CLUSTER SIZE
 PATHE2: OSCILLATION OF PATHS
 PATHE2: THE ATTRACTOR OF THIS PATH WAS PROBABLY NOT INCLUDED IN THE CLUSTER:
 INCREASE CLUSTER SIZE
 PATHE2: OSCILLATION OF PATHS
 PATHE2: THE ATTRACTOR OF THIS PATH WAS PROBABLY NOT INCLUDED IN THE CLUSTER:
 INCREASE CLUSTER SIZE
 PATHE2: OSCILLATION OF PATHS
 PATHE2: THE ATTRACTOR OF THIS PATH WAS PROBABLY NOT INCLUDED IN THE CLUSTER:
 INCREASE CLUSTER SIZE
 PATHE2: OSCILLATION OF PATHS
 PATHE2: THE ATTRACTOR OF THIS PATH WAS PROBABLY NOT INCLUDED IN THE CLUSTER:
 INCREASE CLUSTER SIZE
 PATHE2: OSCILLATION OF PATHS
 PATHE2: THE ATTRACTOR OF THIS PATH WAS PROBABLY NOT INCLUDED IN THE CLUSTER:
 INCREASE CLUSTER SIZE
 PATHE2: OSCILLATION OF PATHS
 PATHE2: THE ATTRACTOR OF THIS PATH WAS PROBABLY NOT INCLUDED IN THE CLUSTER:
 INCREASE CLUSTER SIZE
 PATHE2: OSCILLATION OF PATHS
 PATHE2: THE ATTRACTOR OF THIS PATH WAS PROBABLY NOT INCLUDED IN THE CLUSTER:
 INCREASE CLUSTER SIZE
 PATHE2: OSCILLATION OF PATHS
 PATHE2: THE ATTRACTOR OF THIS PATH WAS PROBABLY NOT INCLUDED IN THE CLUSTER:
 INCREASE CLUSTER SIZE
 PATHE2: OSCILLATION OF PATHS
 PATHE2: THE ATTRACTOR OF THIS PATH WAS PROBABLY NOT INCLUDED IN THE CLUSTER:
 INCREASE CLUSTER SIZE
 PATHE2: OSCILLATION OF PATHS
 PATHE2: THE ATTRACTOR OF THIS PATH WAS PROBABLY NOT INCLUDED IN THE CLUSTER:
 INCREASE CLUSTER SIZE
 PATHE2: OSCILLATION OF PATHS
 PATHE2: THE ATTRACTOR OF THIS PATH WAS PROBABLY NOT INCLUDED IN THE CLUSTER:
 INCREASE CLUSTER SIZE
 PATHE2: OSCILLATION OF PATHS
 PATHE2: THE ATTRACTOR OF THIS PATH WAS PROBABLY NOT INCLUDED IN THE CLUSTER:
 INCREASE CLUSTER SIZE
 PATHE2: OSCILLATION OF PATHS
 PATHE2: THE ATTRACTOR OF THIS PATH WAS PROBABLY NOT INCLUDED IN THE CLUSTER:
 INCREASE CLUSTER SIZE
 PATHE2: OSCILLATION OF PATHS
 PATHE2: THE ATTRACTOR OF THIS PATH WAS PROBABLY NOT INCLUDED IN THE CLUSTER:
 INCREASE CLUSTER SIZE
 PATHE2: OSCILLATION OF PATHS
 PATHE2: THE ATTRACTOR OF THIS PATH WAS PROBABLY NOT INCLUDED IN THE CLUSTER:
 INCREASE CLUSTER SIZE
 PATHE2: OSCILLATION OF PATHS
 PATHE2: THE ATTRACTOR OF THIS PATH WAS PROBABLY NOT INCLUDED IN THE CLUSTER:
 INCREASE CLUSTER SIZE
 PATHE2: OSCILLATION OF PATHS
 PATHE2: THE ATTRACTOR OF THIS PATH WAS PROBABLY NOT INCLUDED IN THE CLUSTER:
 INCREASE CLUSTER SIZE
 PATHE2: OSCILLATION OF PATHS
 PATHE2: THE ATTRACTOR OF THIS PATH WAS PROBABLY NOT INCLUDED IN THE CLUSTER:
 INCREASE CLUSTER SIZE
 PATHE2: OSCILLATION OF PATHS
 PATHE2: THE ATTRACTOR OF THIS PATH WAS PROBABLY NOT INCLUDED IN THE CLUSTER:
 INCREASE CLUSTER SIZE
 PATHE2: OSCILLATION OF PATHS
 PATHE2: THE ATTRACTOR OF THIS PATH WAS PROBABLY NOT INCLUDED IN THE CLUSTER:
 INCREASE CLUSTER SIZE
 PATHE2: OSCILLATION OF PATHS
 PATHE2: THE ATTRACTOR OF THIS PATH WAS PROBABLY NOT INCLUDED IN THE CLUSTER:
 INCREASE CLUSTER SIZE
 PATHE2: OSCILLATION OF PATHS
 PATHE2: THE ATTRACTOR OF THIS PATH WAS PROBABLY NOT INCLUDED IN THE CLUSTER:
 INCREASE CLUSTER SIZE
 PATHE2: OSCILLATION OF PATHS
 PATHE2: THE ATTRACTOR OF THIS PATH WAS PROBABLY NOT INCLUDED IN THE CLUSTER:
 INCREASE CLUSTER SIZE
 PATHE2: OSCILLATION OF PATHS
 PATHE2: THE ATTRACTOR OF THIS PATH WAS PROBABLY NOT INCLUDED IN THE CLUSTER:
 INCREASE CLUSTER SIZE
 PATHE2: OSCILLATION OF PATHS
 PATHE2: THE ATTRACTOR OF THIS PATH WAS PROBABLY NOT INCLUDED IN THE CLUSTER:
 INCREASE CLUSTER SIZE
 PATHE2: OSCILLATION OF PATHS
 PATHE2: THE ATTRACTOR OF THIS PATH WAS PROBABLY NOT INCLUDED IN THE CLUSTER:
 INCREASE CLUSTER SIZE
 PATHE2: OSCILLATION OF PATHS
 PATHE2: THE ATTRACTOR OF THIS PATH WAS PROBABLY NOT INCLUDED IN THE CLUSTER:
 INCREASE CLUSTER SIZE
 PATHE2: OSCILLATION OF PATHS
 PATHE2: THE ATTRACTOR OF THIS PATH WAS PROBABLY NOT INCLUDED IN THE CLUSTER:
 INCREASE CLUSTER SIZE
 PATHE2: OSCILLATION OF PATHS
 PATHE2: THE ATTRACTOR OF THIS PATH WAS PROBABLY NOT INCLUDED IN THE CLUSTER:
 INCREASE CLUSTER SIZE
 PATHE2: OSCILLATION OF PATHS
 PATHE2: THE ATTRACTOR OF THIS PATH WAS PROBABLY NOT INCLUDED IN THE CLUSTER:
 INCREASE CLUSTER SIZE
 PATHE2: OSCILLATION OF PATHS
 PATHE2: THE ATTRACTOR OF THIS PATH WAS PROBABLY NOT INCLUDED IN THE CLUSTER:
 INCREASE CLUSTER SIZE
 PATHE2: OSCILLATION OF PATHS
 PATHE2: THE ATTRACTOR OF THIS PATH WAS PROBABLY NOT INCLUDED IN THE CLUSTER:
 INCREASE CLUSTER SIZE
 PATHE2: OSCILLATION OF PATHS
 PATHE2: THE ATTRACTOR OF THIS PATH WAS PROBABLY NOT INCLUDED IN THE CLUSTER:
 INCREASE CLUSTER SIZE
 PATHE2: OSCILLATION OF PATHS
 PATHE2: THE ATTRACTOR OF THIS PATH WAS PROBABLY NOT INCLUDED IN THE CLUSTER:
 INCREASE CLUSTER SIZE
 PATHE2: OSCILLATION OF PATHS
 PATHE2: THE ATTRACTOR OF THIS PATH WAS PROBABLY NOT INCLUDED IN THE CLUSTER:
 INCREASE CLUSTER SIZE
 PATHE2: OSCILLATION OF PATHS
 PATHE2: THE ATTRACTOR OF THIS PATH WAS PROBABLY NOT INCLUDED IN THE CLUSTER:
 INCREASE CLUSTER SIZE
 PATHE2: OSCILLATION OF PATHS
 PATHE2: THE ATTRACTOR OF THIS PATH WAS PROBABLY NOT INCLUDED IN THE CLUSTER:
 INCREASE CLUSTER SIZE
 PATHE2: OSCILLATION OF PATHS
 PATHE2: THE ATTRACTOR OF THIS PATH WAS PROBABLY NOT INCLUDED IN THE CLUSTER:
 INCREASE CLUSTER SIZE
 PATHE2: OSCILLATION OF PATHS
 PATHE2: THE ATTRACTOR OF THIS PATH WAS PROBABLY NOT INCLUDED IN THE CLUSTER:
 INCREASE CLUSTER SIZE
 PATHE2: OSCILLATION OF PATHS
 PATHE2: THE ATTRACTOR OF THIS PATH WAS PROBABLY NOT INCLUDED IN THE CLUSTER:
 INCREASE CLUSTER SIZE
 PATHE2: OSCILLATION OF PATHS
 PATHE2: THE ATTRACTOR OF THIS PATH WAS PROBABLY NOT INCLUDED IN THE CLUSTER:
 INCREASE CLUSTER SIZE
 PATHE2: OSCILLATION OF PATHS
 PATHE2: THE ATTRACTOR OF THIS PATH WAS PROBABLY NOT INCLUDED IN THE CLUSTER:
 INCREASE CLUSTER SIZE
 PATHE2: OSCILLATION OF PATHS
 PATHE2: THE ATTRACTOR OF THIS PATH WAS PROBABLY NOT INCLUDED IN THE CLUSTER:
 INCREASE CLUSTER SIZE
 PATHE2: OSCILLATION OF PATHS
 PATHE2: THE ATTRACTOR OF THIS PATH WAS PROBABLY NOT INCLUDED IN THE CLUSTER:
 INCREASE CLUSTER SIZE
 PATHE2: OSCILLATION OF PATHS
 PATHE2: THE ATTRACTOR OF THIS PATH WAS PROBABLY NOT INCLUDED IN THE CLUSTER:
 INCREASE CLUSTER SIZE
 PATHE2: OSCILLATION OF PATHS
 PATHE2: THE ATTRACTOR OF THIS PATH WAS PROBABLY NOT INCLUDED IN THE CLUSTER:
 INCREASE CLUSTER SIZE
 PATHE2: OSCILLATION OF PATHS
 PATHE2: THE ATTRACTOR OF THIS PATH WAS PROBABLY NOT INCLUDED IN THE CLUSTER:
 INCREASE CLUSTER SIZE
 PATHE2: OSCILLATION OF PATHS
 PATHE2: THE ATTRACTOR OF THIS PATH WAS PROBABLY NOT INCLUDED IN THE CLUSTER:
 INCREASE CLUSTER SIZE
 PATHE2: OSCILLATION OF PATHS
 PATHE2: THE ATTRACTOR OF THIS PATH WAS PROBABLY NOT INCLUDED IN THE CLUSTER:
 INCREASE CLUSTER SIZE
 PATHE2: OSCILLATION OF PATHS
 PATHE2: THE ATTRACTOR OF THIS PATH WAS PROBABLY NOT INCLUDED IN THE CLUSTER:
 INCREASE CLUSTER SIZE
 PATHE2: OSCILLATION OF PATHS
 PATHE2: THE ATTRACTOR OF THIS PATH WAS PROBABLY NOT INCLUDED IN THE CLUSTER:
 INCREASE CLUSTER SIZE
 PATHE2: OSCILLATION OF PATHS
 PATHE2: THE ATTRACTOR OF THIS PATH WAS PROBABLY NOT INCLUDED IN THE CLUSTER:
 INCREASE CLUSTER SIZE
 PATHE2: OSCILLATION OF PATHS
 PATHE2: THE ATTRACTOR OF THIS PATH WAS PROBABLY NOT INCLUDED IN THE CLUSTER:
 INCREASE CLUSTER SIZE
 PATHE2: OSCILLATION OF PATHS
 PATHE2: THE ATTRACTOR OF THIS PATH WAS PROBABLY NOT INCLUDED IN THE CLUSTER:
 INCREASE CLUSTER SIZE
 PATHE2: OSCILLATION OF PATHS
 PATHE2: THE ATTRACTOR OF THIS PATH WAS PROBABLY NOT INCLUDED IN THE CLUSTER:
 INCREASE CLUSTER SIZE
 PATHE2: OSCILLATION OF PATHS
 PATHE2: THE ATTRACTOR OF THIS PATH WAS PROBABLY NOT INCLUDED IN THE CLUSTER:
 INCREASE CLUSTER SIZE
 PATHE2: OSCILLATION OF PATHS
 PATHE2: THE ATTRACTOR OF THIS PATH WAS PROBABLY NOT INCLUDED IN THE CLUSTER:
 INCREASE CLUSTER SIZE
 PATHE2: OSCILLATION OF PATHS
 PATHE2: THE ATTRACTOR OF THIS PATH WAS PROBABLY NOT INCLUDED IN THE CLUSTER:
 INCREASE CLUSTER SIZE
 PATHE2: OSCILLATION OF PATHS
 PATHE2: THE ATTRACTOR OF THIS PATH WAS PROBABLY NOT INCLUDED IN THE CLUSTER:
 INCREASE CLUSTER SIZE
 PATHE2: OSCILLATION OF PATHS
 PATHE2: THE ATTRACTOR OF THIS PATH WAS PROBABLY NOT INCLUDED IN THE CLUSTER:
 INCREASE CLUSTER SIZE
 PATHE2: OSCILLATION OF PATHS
 PATHE2: THE ATTRACTOR OF THIS PATH WAS PROBABLY NOT INCLUDED IN THE CLUSTER:
 INCREASE CLUSTER SIZE
 PATHE2: OSCILLATION OF PATHS
 PATHE2: THE ATTRACTOR OF THIS PATH WAS PROBABLY NOT INCLUDED IN THE CLUSTER:
 INCREASE CLUSTER SIZE
 PATHE2: OSCILLATION OF PATHS
 PATHE2: THE ATTRACTOR OF THIS PATH WAS PROBABLY NOT INCLUDED IN THE CLUSTER:
 INCREASE CLUSTER SIZE
 PATHE2: OSCILLATION OF PATHS
 PATHE2: THE ATTRACTOR OF THIS PATH WAS PROBABLY NOT INCLUDED IN THE CLUSTER:
 INCREASE CLUSTER SIZE
 PATHE2: OSCILLATION OF PATHS
 PATHE2: THE ATTRACTOR OF THIS PATH WAS PROBABLY NOT INCLUDED IN THE CLUSTER:
 INCREASE CLUSTER SIZE
 PATHE2: OSCILLATION OF PATHS
 PATHE2: THE ATTRACTOR OF THIS PATH WAS PROBABLY NOT INCLUDED IN THE CLUSTER:
 INCREASE CLUSTER SIZE
 PATHE2: OSCILLATION OF PATHS
 PATHE2: THE ATTRACTOR OF THIS PATH WAS PROBABLY NOT INCLUDED IN THE CLUSTER:
 INCREASE CLUSTER SIZE
 PATHE2: OSCILLATION OF PATHS
 PATHE2: THE ATTRACTOR OF THIS PATH WAS PROBABLY NOT INCLUDED IN THE CLUSTER:
 INCREASE CLUSTER SIZE
 PATHE2: OSCILLATION OF PATHS
 PATHE2: THE ATTRACTOR OF THIS PATH WAS PROBABLY NOT INCLUDED IN THE CLUSTER:
 INCREASE CLUSTER SIZE
 PATHE2: OSCILLATION OF PATHS
 PATHE2: THE ATTRACTOR OF THIS PATH WAS PROBABLY NOT INCLUDED IN THE CLUSTER:
 INCREASE CLUSTER SIZE
 PATHE2: OSCILLATION OF PATHS
 PATHE2: THE ATTRACTOR OF THIS PATH WAS PROBABLY NOT INCLUDED IN THE CLUSTER:
 INCREASE CLUSTER SIZE
 PATHE2: OSCILLATION OF PATHS
 PATHE2: THE ATTRACTOR OF THIS PATH WAS PROBABLY NOT INCLUDED IN THE CLUSTER:
 INCREASE CLUSTER SIZE
 PATHE2: OSCILLATION OF PATHS
 PATHE2: THE ATTRACTOR OF THIS PATH WAS PROBABLY NOT INCLUDED IN THE CLUSTER:
 INCREASE CLUSTER SIZE
 PATHE2: OSCILLATION OF PATHS
 PATHE2: THE ATTRACTOR OF THIS PATH WAS PROBABLY NOT INCLUDED IN THE CLUSTER:
 INCREASE CLUSTER SIZE
 PATHE2: OSCILLATION OF PATHS
 PATHE2: THE ATTRACTOR OF THIS PATH WAS PROBABLY NOT INCLUDED IN THE CLUSTER:
 INCREASE CLUSTER SIZE
 PATHE2: OSCILLATION OF PATHS
 PATHE2: THE ATTRACTOR OF THIS PATH WAS PROBABLY NOT INCLUDED IN THE CLUSTER:
 INCREASE CLUSTER SIZE
 PATHE2: OSCILLATION OF PATHS
 PATHE2: THE ATTRACTOR OF THIS PATH WAS PROBABLY NOT INCLUDED IN THE CLUSTER:
 INCREASE CLUSTER SIZE
 PATHE2: OSCILLATION OF PATHS
 PATHE2: THE ATTRACTOR OF THIS PATH WAS PROBABLY NOT INCLUDED IN THE CLUSTER:
 INCREASE CLUSTER SIZE
 PATHE2: OSCILLATION OF PATHS
 PATHE2: THE ATTRACTOR OF THIS PATH WAS PROBABLY NOT INCLUDED IN THE CLUSTER:
 INCREASE CLUSTER SIZE
 PATHE2: OSCILLATION OF PATHS
 PATHE2: THE ATTRACTOR OF THIS PATH WAS PROBABLY NOT INCLUDED IN THE CLUSTER:
 INCREASE CLUSTER SIZE
 PATHE2: OSCILLATION OF PATHS
 PATHE2: THE ATTRACTOR OF THIS PATH WAS PROBABLY NOT INCLUDED IN THE CLUSTER:
 INCREASE CLUSTER SIZE
 PATHE2: OSCILLATION OF PATHS
 PATHE2: THE ATTRACTOR OF THIS PATH WAS PROBABLY NOT INCLUDED IN THE CLUSTER:
 INCREASE CLUSTER SIZE
 PATHE2: OSCILLATION OF PATHS
 PATHE2: THE ATTRACTOR OF THIS PATH WAS PROBABLY NOT INCLUDED IN THE CLUSTER:
 INCREASE CLUSTER SIZE
 PATHE2: OSCILLATION OF PATHS
 PATHE2: THE ATTRACTOR OF THIS PATH WAS PROBABLY NOT INCLUDED IN THE CLUSTER:
 INCREASE CLUSTER SIZE
 PATHE2: OSCILLATION OF PATHS
 PATHE2: THE ATTRACTOR OF THIS PATH WAS PROBABLY NOT INCLUDED IN THE CLUSTER:
 INCREASE CLUSTER SIZE
 PATHE2: OSCILLATION OF PATHS
 PATHE2: THE ATTRACTOR OF THIS PATH WAS PROBABLY NOT INCLUDED IN THE CLUSTER:
 INCREASE CLUSTER SIZE
 PATHE2: OSCILLATION OF PATHS
 PATHE2: THE ATTRACTOR OF THIS PATH WAS PROBABLY NOT INCLUDED IN THE CLUSTER:
 INCREASE CLUSTER SIZE
 PATHE2: OSCILLATION OF PATHS
 PATHE2: THE ATTRACTOR OF THIS PATH WAS PROBABLY NOT INCLUDED IN THE CLUSTER:
 INCREASE CLUSTER SIZE
 PATHE2: OSCILLATION OF PATHS
 PATHE2: THE ATTRACTOR OF THIS PATH WAS PROBABLY NOT INCLUDED IN THE CLUSTER:
 INCREASE CLUSTER SIZE
 PATHE2: OSCILLATION OF PATHS
 PATHE2: THE ATTRACTOR OF THIS PATH WAS PROBABLY NOT INCLUDED IN THE CLUSTER:
 INCREASE CLUSTER SIZE
 PATHE2: OSCILLATION OF PATHS
 PATHE2: THE ATTRACTOR OF THIS PATH WAS PROBABLY NOT INCLUDED IN THE CLUSTER:
 INCREASE CLUSTER SIZE
 PATHE2: OSCILLATION OF PATHS
 PATHE2: THE ATTRACTOR OF THIS PATH WAS PROBABLY NOT INCLUDED IN THE CLUSTER:
 INCREASE CLUSTER SIZE
 PATHE2: OSCILLATION OF PATHS
 PATHE2: THE ATTRACTOR OF THIS PATH WAS PROBABLY NOT INCLUDED IN THE CLUSTER:
 INCREASE CLUSTER SIZE
 PATHE2: OSCILLATION OF PATHS
 PATHE2: THE ATTRACTOR OF THIS PATH WAS PROBABLY NOT INCLUDED IN THE CLUSTER:
 INCREASE CLUSTER SIZE
 PATHE2: OSCILLATION OF PATHS
 PATHE2: THE ATTRACTOR OF THIS PATH WAS PROBABLY NOT INCLUDED IN THE CLUSTER:
 INCREASE CLUSTER SIZE
 PATHE2: OSCILLATION OF PATHS
 PATHE2: THE ATTRACTOR OF THIS PATH WAS PROBABLY NOT INCLUDED IN THE CLUSTER:
 INCREASE CLUSTER SIZE
 PATHE2: OSCILLATION OF PATHS
 PATHE2: THE ATTRACTOR OF THIS PATH WAS PROBABLY NOT INCLUDED IN THE CLUSTER:
 INCREASE CLUSTER SIZE
 PATHE2: OSCILLATION OF PATHS
 PATHE2: THE ATTRACTOR OF THIS PATH WAS PROBABLY NOT INCLUDED IN THE CLUSTER:
 INCREASE CLUSTER SIZE
 PATHE2: OSCILLATION OF PATHS
 PATHE2: THE ATTRACTOR OF THIS PATH WAS PROBABLY NOT INCLUDED IN THE CLUSTER:
 INCREASE CLUSTER SIZE
 PATHE2: OSCILLATION OF PATHS
 PATHE2: THE ATTRACTOR OF THIS PATH WAS PROBABLY NOT INCLUDED IN THE CLUSTER:
 INCREASE CLUSTER SIZE
 PATHE2: OSCILLATION OF PATHS
 PATHE2: THE ATTRACTOR OF THIS PATH WAS PROBABLY NOT INCLUDED IN THE CLUSTER:
 INCREASE CLUSTER SIZE
 PATHE2: OSCILLATION OF PATHS
 PATHE2: THE ATTRACTOR OF THIS PATH WAS PROBABLY NOT INCLUDED IN THE CLUSTER:
 INCREASE CLUSTER SIZE
 PATHE2: OSCILLATION OF PATHS
 PATHE2: THE ATTRACTOR OF THIS PATH WAS PROBABLY NOT INCLUDED IN THE CLUSTER:
 INCREASE CLUSTER SIZE
 PATHE2: OSCILLATION OF PATHS
 PATHE2: THE ATTRACTOR OF THIS PATH WAS PROBABLY NOT INCLUDED IN THE CLUSTER:
 INCREASE CLUSTER SIZE
 PATHE2: OSCILLATION OF PATHS
 PATHE2: THE ATTRACTOR OF THIS PATH WAS PROBABLY NOT INCLUDED IN THE CLUSTER:
 INCREASE CLUSTER SIZE
 PATHE2: OSCILLATION OF PATHS
 PATHE2: THE ATTRACTOR OF THIS PATH WAS PROBABLY NOT INCLUDED IN THE CLUSTER:
 INCREASE CLUSTER SIZE
 PATHE2: OSCILLATION OF PATHS
 PATHE2: THE ATTRACTOR OF THIS PATH WAS PROBABLY NOT INCLUDED IN THE CLUSTER:
 INCREASE CLUSTER SIZE
 PATHE2: OSCILLATION OF PATHS
 PATHE2: THE ATTRACTOR OF THIS PATH WAS PROBABLY NOT INCLUDED IN THE CLUSTER:
 INCREASE CLUSTER SIZE
 PATHE2: OSCILLATION OF PATHS
 PATHE2: THE ATTRACTOR OF THIS PATH WAS PROBABLY NOT INCLUDED IN THE CLUSTER:
 INCREASE CLUSTER SIZE
 PATHE2: OSCILLATION OF PATHS
 PATHE2: THE ATTRACTOR OF THIS PATH WAS PROBABLY NOT INCLUDED IN THE CLUSTER:
 INCREASE CLUSTER SIZE
 PATHE2: OSCILLATION OF PATHS
 PATHE2: THE ATTRACTOR OF THIS PATH WAS PROBABLY NOT INCLUDED IN THE CLUSTER:
 INCREASE CLUSTER SIZE
 PATHE2: OSCILLATION OF PATHS
 PATHE2: THE ATTRACTOR OF THIS PATH WAS PROBABLY NOT INCLUDED IN THE CLUSTER:
 INCREASE CLUSTER SIZE
 PATHE2: OSCILLATION OF PATHS
 PATHE2: THE ATTRACTOR OF THIS PATH WAS PROBABLY NOT INCLUDED IN THE CLUSTER:
 INCREASE CLUSTER SIZE
 PATHE2: OSCILLATION OF PATHS
 PATHE2: THE ATTRACTOR OF THIS PATH WAS PROBABLY NOT INCLUDED IN THE CLUSTER:
 INCREASE CLUSTER SIZE
 PATHE2: OSCILLATION OF PATHS
 PATHE2: THE ATTRACTOR OF THIS PATH WAS PROBABLY NOT INCLUDED IN THE CLUSTER:
 INCREASE CLUSTER SIZE
 PATHE2: OSCILLATION OF PATHS
 PATHE2: THE ATTRACTOR OF THIS PATH WAS PROBABLY NOT INCLUDED IN THE CLUSTER:
 INCREASE CLUSTER SIZE
 PATHE2: OSCILLATION OF PATHS
 PATHE2: THE ATTRACTOR OF THIS PATH WAS PROBABLY NOT INCLUDED IN THE CLUSTER:
 INCREASE CLUSTER SIZE
 PATHE2: OSCILLATION OF PATHS
 PATHE2: THE ATTRACTOR OF THIS PATH WAS PROBABLY NOT INCLUDED IN THE CLUSTER:
 INCREASE CLUSTER SIZE
 PATHE2: OSCILLATION OF PATHS
 PATHE2: THE ATTRACTOR OF THIS PATH WAS PROBABLY NOT INCLUDED IN THE CLUSTER:
 INCREASE CLUSTER SIZE
 PATHE2: OSCILLATION OF PATHS
 PATHE2: THE ATTRACTOR OF THIS PATH WAS PROBABLY NOT INCLUDED IN THE CLUSTER:
 INCREASE CLUSTER SIZE
 PATHE2: OSCILLATION OF PATHS
 PATHE2: THE ATTRACTOR OF THIS PATH WAS PROBABLY NOT INCLUDED IN THE CLUSTER:
 INCREASE CLUSTER SIZE
 PATHE2: OSCILLATION OF PATHS
 PATHE2: THE ATTRACTOR OF THIS PATH WAS PROBABLY NOT INCLUDED IN THE CLUSTER:
 INCREASE CLUSTER SIZE
 PATHE2: OSCILLATION OF PATHS
 PATHE2: THE ATTRACTOR OF THIS PATH WAS PROBABLY NOT INCLUDED IN THE CLUSTER:
 INCREASE CLUSTER SIZE
 PATHE2: OSCILLATION OF PATHS
 PATHE2: THE ATTRACTOR OF THIS PATH WAS PROBABLY NOT INCLUDED IN THE CLUSTER:
 INCREASE CLUSTER SIZE
 PATHE2: OSCILLATION OF PATHS
 PATHE2: THE ATTRACTOR OF THIS PATH WAS PROBABLY NOT INCLUDED IN THE CLUSTER:
 INCREASE CLUSTER SIZE
 PATHE2: OSCILLATION OF PATHS
 PATHE2: THE ATTRACTOR OF THIS PATH WAS PROBABLY NOT INCLUDED IN THE CLUSTER:
 INCREASE CLUSTER SIZE
 PATHE2: OSCILLATION OF PATHS
 PATHE2: THE ATTRACTOR OF THIS PATH WAS PROBABLY NOT INCLUDED IN THE CLUSTER:
 INCREASE CLUSTER SIZE
 PATHE2: OSCILLATION OF PATHS
 PATHE2: THE ATTRACTOR OF THIS PATH WAS PROBABLY NOT INCLUDED IN THE CLUSTER:
 INCREASE CLUSTER SIZE
 PATHE2: OSCILLATION OF PATHS
 PATHE2: THE ATTRACTOR OF THIS PATH WAS PROBABLY NOT INCLUDED IN THE CLUSTER:
 INCREASE CLUSTER SIZE
 PATHE2: OSCILLATION OF PATHS
 PATHE2: THE ATTRACTOR OF THIS PATH WAS PROBABLY NOT INCLUDED IN THE CLUSTER:
 INCREASE CLUSTER SIZE
 PATHE2: OSCILLATION OF PATHS
 PATHE2: THE ATTRACTOR OF THIS PATH WAS PROBABLY NOT INCLUDED IN THE CLUSTER:
 INCREASE CLUSTER SIZE
 PATHE2: OSCILLATION OF PATHS
 PATHE2: THE ATTRACTOR OF THIS PATH WAS PROBABLY NOT INCLUDED IN THE CLUSTER:
 INCREASE CLUSTER SIZE
 PATHE2: OSCILLATION OF PATHS
 PATHE2: THE ATTRACTOR OF THIS PATH WAS PROBABLY NOT INCLUDED IN THE CLUSTER:
 INCREASE CLUSTER SIZE
 PATHE2: OSCILLATION OF PATHS
 PATHE2: THE ATTRACTOR OF THIS PATH WAS PROBABLY NOT INCLUDED IN THE CLUSTER:
 INCREASE CLUSTER SIZE
 PATHE2: OSCILLATION OF PATHS
 PATHE2: THE ATTRACTOR OF THIS PATH WAS PROBABLY NOT INCLUDED IN THE CLUSTER:
 INCREASE CLUSTER SIZE
 PATHE2: OSCILLATION OF PATHS
 PATHE2: THE ATTRACTOR OF THIS PATH WAS PROBABLY NOT INCLUDED IN THE CLUSTER:
 INCREASE CLUSTER SIZE
 PATHE2: OSCILLATION OF PATHS
 PATHE2: THE ATTRACTOR OF THIS PATH WAS PROBABLY NOT INCLUDED IN THE CLUSTER:
 INCREASE CLUSTER SIZE
 PATHE2: OSCILLATION OF PATHS
 PATHE2: THE ATTRACTOR OF THIS PATH WAS PROBABLY NOT INCLUDED IN THE CLUSTER:
 INCREASE CLUSTER SIZE
 PATHE2: OSCILLATION OF PATHS
 PATHE2: THE ATTRACTOR OF THIS PATH WAS PROBABLY NOT INCLUDED IN THE CLUSTER:
 INCREASE CLUSTER SIZE
 PATHE2: OSCILLATION OF PATHS
 PATHE2: THE ATTRACTOR OF THIS PATH WAS PROBABLY NOT INCLUDED IN THE CLUSTER:
 INCREASE CLUSTER SIZE
 PATHE2: OSCILLATION OF PATHS
 PATHE2: THE ATTRACTOR OF THIS PATH WAS PROBABLY NOT INCLUDED IN THE CLUSTER:
 INCREASE CLUSTER SIZE
 PATHE2: OSCILLATION OF PATHS
 PATHE2: THE ATTRACTOR OF THIS PATH WAS PROBABLY NOT INCLUDED IN THE CLUSTER:
 INCREASE CLUSTER SIZE
 PATHE2: OSCILLATION OF PATHS
 PATHE2: THE ATTRACTOR OF THIS PATH WAS PROBABLY NOT INCLUDED IN THE CLUSTER:
 INCREASE CLUSTER SIZE
 PATHE2: OSCILLATION OF PATHS
 PATHE2: THE ATTRACTOR OF THIS PATH WAS PROBABLY NOT INCLUDED IN THE CLUSTER:
 INCREASE CLUSTER SIZE
 PATHE2: OSCILLATION OF PATHS
 PATHE2: THE ATTRACTOR OF THIS PATH WAS PROBABLY NOT INCLUDED IN THE CLUSTER:
 INCREASE CLUSTER SIZE
 PATHE2: OSCILLATION OF PATHS
 PATHE2: THE ATTRACTOR OF THIS PATH WAS PROBABLY NOT INCLUDED IN THE CLUSTER:
 INCREASE CLUSTER SIZE
 PATHE2: OSCILLATION OF PATHS
 PATHE2: THE ATTRACTOR OF THIS PATH WAS PROBABLY NOT INCLUDED IN THE CLUSTER:
 INCREASE CLUSTER SIZE
 PATHE2: OSCILLATION OF PATHS
 PATHE2: THE ATTRACTOR OF THIS PATH WAS PROBABLY NOT INCLUDED IN THE CLUSTER:
 INCREASE CLUSTER SIZE
 PATHE2: OSCILLATION OF PATHS
 PATHE2: THE ATTRACTOR OF THIS PATH WAS PROBABLY NOT INCLUDED IN THE CLUSTER:
 INCREASE CLUSTER SIZE
 PATHE2: OSCILLATION OF PATHS
 PATHE2: THE ATTRACTOR OF THIS PATH WAS PROBABLY NOT INCLUDED IN THE CLUSTER:
 INCREASE CLUSTER SIZE
 PATHE2: OSCILLATION OF PATHS
 PATHE2: THE ATTRACTOR OF THIS PATH WAS PROBABLY NOT INCLUDED IN THE CLUSTER:
 INCREASE CLUSTER SIZE
 PATHE2: OSCILLATION OF PATHS
 PATHE2: THE ATTRACTOR OF THIS PATH WAS PROBABLY NOT INCLUDED IN THE CLUSTER:
 INCREASE CLUSTER SIZE
 PATHE2: OSCILLATION OF PATHS
 PATHE2: THE ATTRACTOR OF THIS PATH WAS PROBABLY NOT INCLUDED IN THE CLUSTER:
 INCREASE CLUSTER SIZE
 PATHE2: OSCILLATION OF PATHS
 PATHE2: THE ATTRACTOR OF THIS PATH WAS PROBABLY NOT INCLUDED IN THE CLUSTER:
 INCREASE CLUSTER SIZE
 PATHE2: OSCILLATION OF PATHS
 PATHE2: THE ATTRACTOR OF THIS PATH WAS PROBABLY NOT INCLUDED IN THE CLUSTER:
 INCREASE CLUSTER SIZE
 PATHE2: OSCILLATION OF PATHS
 PATHE2: THE ATTRACTOR OF THIS PATH WAS PROBABLY NOT INCLUDED IN THE CLUSTER:
 INCREASE CLUSTER SIZE
 PATHE2: OSCILLATION OF PATHS
 PATHE2: THE ATTRACTOR OF THIS PATH WAS PROBABLY NOT INCLUDED IN THE CLUSTER:
 INCREASE CLUSTER SIZE
 PATHE2: OSCILLATION OF PATHS
 PATHE2: THE ATTRACTOR OF THIS PATH WAS PROBABLY NOT INCLUDED IN THE CLUSTER:
 INCREASE CLUSTER SIZE
 PATHE2: OSCILLATION OF PATHS
 PATHE2: THE ATTRACTOR OF THIS PATH WAS PROBABLY NOT INCLUDED IN THE CLUSTER:
 INCREASE CLUSTER SIZE
 PATHE2: OSCILLATION OF PATHS
 PATHE2: THE ATTRACTOR OF THIS PATH WAS PROBABLY NOT INCLUDED IN THE CLUSTER:
 INCREASE CLUSTER SIZE
 PATHE2: OSCILLATION OF PATHS
 PATHE2: THE ATTRACTOR OF THIS PATH WAS PROBABLY NOT INCLUDED IN THE CLUSTER:
 INCREASE CLUSTER SIZE
 PATHE2: OSCILLATION OF PATHS
 PATHE2: THE ATTRACTOR OF THIS PATH WAS PROBABLY NOT INCLUDED IN THE CLUSTER:
 INCREASE CLUSTER SIZE
 PATHE2: OSCILLATION OF PATHS
 PATHE2: THE ATTRACTOR OF THIS PATH WAS PROBABLY NOT INCLUDED IN THE CLUSTER:
 INCREASE CLUSTER SIZE
 PATHE2: OSCILLATION OF PATHS
 PATHE2: THE ATTRACTOR OF THIS PATH WAS PROBABLY NOT INCLUDED IN THE CLUSTER:
 INCREASE CLUSTER SIZE
 PATHE2: OSCILLATION OF PATHS
 PATHE2: THE ATTRACTOR OF THIS PATH WAS PROBABLY NOT INCLUDED IN THE CLUSTER:
 INCREASE CLUSTER SIZE
 PATHE2: OSCILLATION OF PATHS
 PATHE2: THE ATTRACTOR OF THIS PATH WAS PROBABLY NOT INCLUDED IN THE CLUSTER:
 INCREASE CLUSTER SIZE
 PATHE2: OSCILLATION OF PATHS
 PATHE2: THE ATTRACTOR OF THIS PATH WAS PROBABLY NOT INCLUDED IN THE CLUSTER:
 INCREASE CLUSTER SIZE
 PATHE2: OSCILLATION OF PATHS
 PATHE2: THE ATTRACTOR OF THIS PATH WAS PROBABLY NOT INCLUDED IN THE CLUSTER:
 INCREASE CLUSTER SIZE
 PATHE2: OSCILLATION OF PATHS
 PATHE2: THE ATTRACTOR OF THIS PATH WAS PROBABLY NOT INCLUDED IN THE CLUSTER:
 INCREASE CLUSTER SIZE
 PATHE2: OSCILLATION OF PATHS
 PATHE2: THE ATTRACTOR OF THIS PATH WAS PROBABLY NOT INCLUDED IN THE CLUSTER:
 INCREASE CLUSTER SIZE
 PATHE2: OSCILLATION OF PATHS
 PATHE2: THE ATTRACTOR OF THIS PATH WAS PROBABLY NOT INCLUDED IN THE CLUSTER:
 INCREASE CLUSTER SIZE
 PATHE2: OSCILLATION OF PATHS
 PATHE2: THE ATTRACTOR OF THIS PATH WAS PROBABLY NOT INCLUDED IN THE CLUSTER:
 INCREASE CLUSTER SIZE
 PATHE2: OSCILLATION OF PATHS
 PATHE2: THE ATTRACTOR OF THIS PATH WAS PROBABLY NOT INCLUDED IN THE CLUSTER:
 INCREASE CLUSTER SIZE
 PATHE2: OSCILLATION OF PATHS
 PATHE2: THE ATTRACTOR OF THIS PATH WAS PROBABLY NOT INCLUDED IN THE CLUSTER:
 INCREASE CLUSTER SIZE
 PATHE2: OSCILLATION OF PATHS
 PATHE2: THE ATTRACTOR OF THIS PATH WAS PROBABLY NOT INCLUDED IN THE CLUSTER:
 INCREASE CLUSTER SIZE
 PATHE2: OSCILLATION OF PATHS
 PATHE2: THE ATTRACTOR OF THIS PATH WAS PROBABLY NOT INCLUDED IN THE CLUSTER:
 INCREASE CLUSTER SIZE
 PATHE2: OSCILLATION OF PATHS
 PATHE2: THE ATTRACTOR OF THIS PATH WAS PROBABLY NOT INCLUDED IN THE CLUSTER:
 INCREASE CLUSTER SIZE
 PATHE2: OSCILLATION OF PATHS
 PATHE2: THE ATTRACTOR OF THIS PATH WAS PROBABLY NOT INCLUDED IN THE CLUSTER:
 INCREASE CLUSTER SIZE
 PATHE2: OSCILLATION OF PATHS
 PATHE2: THE ATTRACTOR OF THIS PATH WAS PROBABLY NOT INCLUDED IN THE CLUSTER:
 INCREASE CLUSTER SIZE
 PATHE2: OSCILLATION OF PATHS
 PATHE2: THE ATTRACTOR OF THIS PATH WAS PROBABLY NOT INCLUDED IN THE CLUSTER:
 INCREASE CLUSTER SIZE
 PATHE2: OSCILLATION OF PATHS
 PATHE2: THE ATTRACTOR OF THIS PATH WAS PROBABLY NOT INCLUDED IN THE CLUSTER:
 INCREASE CLUSTER SIZE
 PATHE2: OSCILLATION OF PATHS
 PATHE2: THE ATTRACTOR OF THIS PATH WAS PROBABLY NOT INCLUDED IN THE CLUSTER:
 INCREASE CLUSTER SIZE
 PATHE2: OSCILLATION OF PATHS
 PATHE2: THE ATTRACTOR OF THIS PATH WAS PROBABLY NOT INCLUDED IN THE CLUSTER:
 INCREASE CLUSTER SIZE
 PATHE2: OSCILLATION OF PATHS
 PATHE2: THE ATTRACTOR OF THIS PATH WAS PROBABLY NOT INCLUDED IN THE CLUSTER:
 INCREASE CLUSTER SIZE
 PATHE2: OSCILLATION OF PATHS
 PATHE2: THE ATTRACTOR OF THIS PATH WAS PROBABLY NOT INCLUDED IN THE CLUSTER:
 INCREASE CLUSTER SIZE
 PATHE2: OSCILLATION OF PATHS
 PATHE2: THE ATTRACTOR OF THIS PATH WAS PROBABLY NOT INCLUDED IN THE CLUSTER:
 INCREASE CLUSTER SIZE
 PATHE2: OSCILLATION OF PATHS
 PATHE2: THE ATTRACTOR OF THIS PATH WAS PROBABLY NOT INCLUDED IN THE CLUSTER:
 INCREASE CLUSTER SIZE
 PATHE2: OSCILLATION OF PATHS
 PATHE2: THE ATTRACTOR OF THIS PATH WAS PROBABLY NOT INCLUDED IN THE CLUSTER:
 INCREASE CLUSTER SIZE
 PATHE2: OSCILLATION OF PATHS
 PATHE2: THE ATTRACTOR OF THIS PATH WAS PROBABLY NOT INCLUDED IN THE CLUSTER:
 INCREASE CLUSTER SIZE
 PATHE2: OSCILLATION OF PATHS
 PATHE2: THE ATTRACTOR OF THIS PATH WAS PROBABLY NOT INCLUDED IN THE CLUSTER:
 INCREASE CLUSTER SIZE
 PATHE2: OSCILLATION OF PATHS
 PATHE2: THE ATTRACTOR OF THIS PATH WAS PROBABLY NOT INCLUDED IN THE CLUSTER:
 INCREASE CLUSTER SIZE
 PATHE2: OSCILLATION OF PATHS
 PATHE2: THE ATTRACTOR OF THIS PATH WAS PROBABLY NOT INCLUDED IN THE CLUSTER:
 INCREASE CLUSTER SIZE
 PATHE2: OSCILLATION OF PATHS
 PATHE2: THE ATTRACTOR OF THIS PATH WAS PROBABLY NOT INCLUDED IN THE CLUSTER:
 INCREASE CLUSTER SIZE
 PATHE2: OSCILLATION OF PATHS
 PATHE2: THE ATTRACTOR OF THIS PATH WAS PROBABLY NOT INCLUDED IN THE CLUSTER:
 INCREASE CLUSTER SIZE
 PATHE2: OSCILLATION OF PATHS
 PATHE2: THE ATTRACTOR OF THIS PATH WAS PROBABLY NOT INCLUDED IN THE CLUSTER:
 INCREASE CLUSTER SIZE
 PATHE2: OSCILLATION OF PATHS
 PATHE2: THE ATTRACTOR OF THIS PATH WAS PROBABLY NOT INCLUDED IN THE CLUSTER:
 INCREASE CLUSTER SIZE
 PATHE2: OSCILLATION OF PATHS
 PATHE2: THE ATTRACTOR OF THIS PATH WAS PROBABLY NOT INCLUDED IN THE CLUSTER:
 INCREASE CLUSTER SIZE
 PATHE2: OSCILLATION OF PATHS
 PATHE2: THE ATTRACTOR OF THIS PATH WAS PROBABLY NOT INCLUDED IN THE CLUSTER:
 INCREASE CLUSTER SIZE
 PATHE2: OSCILLATION OF PATHS
 PATHE2: THE ATTRACTOR OF THIS PATH WAS PROBABLY NOT INCLUDED IN THE CLUSTER:
 INCREASE CLUSTER SIZE
 PATHE2: OSCILLATION OF PATHS
 PATHE2: THE ATTRACTOR OF THIS PATH WAS PROBABLY NOT INCLUDED IN THE CLUSTER:
 INCREASE CLUSTER SIZE
 PATHE2: OSCILLATION OF PATHS
 PATHE2: THE ATTRACTOR OF THIS PATH WAS PROBABLY NOT INCLUDED IN THE CLUSTER:
 INCREASE CLUSTER SIZE
 PATHE2: OSCILLATION OF PATHS
 PATHE2: THE ATTRACTOR OF THIS PATH WAS PROBABLY NOT INCLUDED IN THE CLUSTER:
 INCREASE CLUSTER SIZE
 PATHE2: OSCILLATION OF PATHS
 PATHE2: THE ATTRACTOR OF THIS PATH WAS PROBABLY NOT INCLUDED IN THE CLUSTER:
 INCREASE CLUSTER SIZE
 PATHE2: OSCILLATION OF PATHS
 PATHE2: THE ATTRACTOR OF THIS PATH WAS PROBABLY NOT INCLUDED IN THE CLUSTER:
 INCREASE CLUSTER SIZE
 PATHE2: OSCILLATION OF PATHS
 PATHE2: THE ATTRACTOR OF THIS PATH WAS PROBABLY NOT INCLUDED IN THE CLUSTER:
 INCREASE CLUSTER SIZE
 PATHE2: OSCILLATION OF PATHS
 PATHE2: THE ATTRACTOR OF THIS PATH WAS PROBABLY NOT INCLUDED IN THE CLUSTER:
 INCREASE CLUSTER SIZE
 PATHE2: OSCILLATION OF PATHS
 PATHE2: THE ATTRACTOR OF THIS PATH WAS PROBABLY NOT INCLUDED IN THE CLUSTER:
 INCREASE CLUSTER SIZE
 PATHE2: OSCILLATION OF PATHS
 PATHE2: THE ATTRACTOR OF THIS PATH WAS PROBABLY NOT INCLUDED IN THE CLUSTER:
 INCREASE CLUSTER SIZE
 PATHE2: OSCILLATION OF PATHS
 PATHE2: THE ATTRACTOR OF THIS PATH WAS PROBABLY NOT INCLUDED IN THE CLUSTER:
 INCREASE CLUSTER SIZE
 PATHE2: OSCILLATION OF PATHS
 PATHE2: THE ATTRACTOR OF THIS PATH WAS PROBABLY NOT INCLUDED IN THE CLUSTER:
 INCREASE CLUSTER SIZE
 PATHE2: OSCILLATION OF PATHS
 PATHE2: THE ATTRACTOR OF THIS PATH WAS PROBABLY NOT INCLUDED IN THE CLUSTER:
 INCREASE CLUSTER SIZE
 PATHE2: OSCILLATION OF PATHS
 PATHE2: THE ATTRACTOR OF THIS PATH WAS PROBABLY NOT INCLUDED IN THE CLUSTER:
 INCREASE CLUSTER SIZE
 PATHE2: OSCILLATION OF PATHS
 PATHE2: THE ATTRACTOR OF THIS PATH WAS PROBABLY NOT INCLUDED IN THE CLUSTER:
 INCREASE CLUSTER SIZE
 PATHE2: OSCILLATION OF PATHS
 PATHE2: THE ATTRACTOR OF THIS PATH WAS PROBABLY NOT INCLUDED IN THE CLUSTER:
 INCREASE CLUSTER SIZE
 PATHE2: OSCILLATION OF PATHS
 PATHE2: THE ATTRACTOR OF THIS PATH WAS PROBABLY NOT INCLUDED IN THE CLUSTER:
 INCREASE CLUSTER SIZE
 PATHE2: OSCILLATION OF PATHS
 PATHE2: THE ATTRACTOR OF THIS PATH WAS PROBABLY NOT INCLUDED IN THE CLUSTER:
 INCREASE CLUSTER SIZE
 PATHE2: OSCILLATION OF PATHS
 PATHE2: THE ATTRACTOR OF THIS PATH WAS PROBABLY NOT INCLUDED IN THE CLUSTER:
 INCREASE CLUSTER SIZE
 PATHE2: OSCILLATION OF PATHS
 PATHE2: THE ATTRACTOR OF THIS PATH WAS PROBABLY NOT INCLUDED IN THE CLUSTER:
 INCREASE CLUSTER SIZE
 PATHE2: OSCILLATION OF PATHS
 PATHE2: THE ATTRACTOR OF THIS PATH WAS PROBABLY NOT INCLUDED IN THE CLUSTER:
 INCREASE CLUSTER SIZE
 PATHE2: OSCILLATION OF PATHS
 PATHE2: THE ATTRACTOR OF THIS PATH WAS PROBABLY NOT INCLUDED IN THE CLUSTER:
 INCREASE CLUSTER SIZE
 PATHE2: OSCILLATION OF PATHS
 PATHE2: THE ATTRACTOR OF THIS PATH WAS PROBABLY NOT INCLUDED IN THE CLUSTER:
 INCREASE CLUSTER SIZE
 PATHE2: OSCILLATION OF PATHS
 PATHE2: THE ATTRACTOR OF THIS PATH WAS PROBABLY NOT INCLUDED IN THE CLUSTER:
 INCREASE CLUSTER SIZE
 PATHE2: OSCILLATION OF PATHS
 PATHE2: THE ATTRACTOR OF THIS PATH WAS PROBABLY NOT INCLUDED IN THE CLUSTER:
 INCREASE CLUSTER SIZE
 PATHE2: OSCILLATION OF PATHS
 PATHE2: THE ATTRACTOR OF THIS PATH WAS PROBABLY NOT INCLUDED IN THE CLUSTER:
 INCREASE CLUSTER SIZE
 PATHE2: OSCILLATION OF PATHS
 PATHE2: THE ATTRACTOR OF THIS PATH WAS PROBABLY NOT INCLUDED IN THE CLUSTER:
 INCREASE CLUSTER SIZE
 PATHE2: OSCILLATION OF PATHS
 PATHE2: THE ATTRACTOR OF THIS PATH WAS PROBABLY NOT INCLUDED IN THE CLUSTER:
 INCREASE CLUSTER SIZE
 PATHE2: OSCILLATION OF PATHS
 PATHE2: THE ATTRACTOR OF THIS PATH WAS PROBABLY NOT INCLUDED IN THE CLUSTER:
 INCREASE CLUSTER SIZE
 PATHE2: OSCILLATION OF PATHS
 PATHE2: THE ATTRACTOR OF THIS PATH WAS PROBABLY NOT INCLUDED IN THE CLUSTER:
 INCREASE CLUSTER SIZE
 PATHE2: OSCILLATION OF PATHS
 PATHE2: THE ATTRACTOR OF THIS PATH WAS PROBABLY NOT INCLUDED IN THE CLUSTER:
 INCREASE CLUSTER SIZE
 PATHE2: OSCILLATION OF PATHS
 PATHE2: THE ATTRACTOR OF THIS PATH WAS PROBABLY NOT INCLUDED IN THE CLUSTER:
 INCREASE CLUSTER SIZE
 PATHE2: OSCILLATION OF PATHS
 PATHE2: THE ATTRACTOR OF THIS PATH WAS PROBABLY NOT INCLUDED IN THE CLUSTER:
 INCREASE CLUSTER SIZE
 PATHE2: OSCILLATION OF PATHS
 PATHE2: THE ATTRACTOR OF THIS PATH WAS PROBABLY NOT INCLUDED IN THE CLUSTER:
 INCREASE CLUSTER SIZE
 PATHE2: OSCILLATION OF PATHS
 PATHE2: THE ATTRACTOR OF THIS PATH WAS PROBABLY NOT INCLUDED IN THE CLUSTER:
 INCREASE CLUSTER SIZE
 PATHE2: OSCILLATION OF PATHS
 PATHE2: THE ATTRACTOR OF THIS PATH WAS PROBABLY NOT INCLUDED IN THE CLUSTER:
 INCREASE CLUSTER SIZE
 PATHE2: OSCILLATION OF PATHS
 PATHE2: THE ATTRACTOR OF THIS PATH WAS PROBABLY NOT INCLUDED IN THE CLUSTER:
 INCREASE CLUSTER SIZE
 PATHE2: OSCILLATION OF PATHS
 PATHE2: THE ATTRACTOR OF THIS PATH WAS PROBABLY NOT INCLUDED IN THE CLUSTER:
 INCREASE CLUSTER SIZE
 PATHE2: OSCILLATION OF PATHS
 PATHE2: THE ATTRACTOR OF THIS PATH WAS PROBABLY NOT INCLUDED IN THE CLUSTER:
 INCREASE CLUSTER SIZE
 PATHE2: OSCILLATION OF PATHS
 PATHE2: THE ATTRACTOR OF THIS PATH WAS PROBABLY NOT INCLUDED IN THE CLUSTER:
 INCREASE CLUSTER SIZE
 PATHE2: OSCILLATION OF PATHS
 PATHE2: THE ATTRACTOR OF THIS PATH WAS PROBABLY NOT INCLUDED IN THE CLUSTER:
 INCREASE CLUSTER SIZE
 PATHE2: OSCILLATION OF PATHS
 PATHE2: THE ATTRACTOR OF THIS PATH WAS PROBABLY NOT INCLUDED IN THE CLUSTER:
 INCREASE CLUSTER SIZE
 PATHE2: OSCILLATION OF PATHS
 PATHE2: THE ATTRACTOR OF THIS PATH WAS PROBABLY NOT INCLUDED IN THE CLUSTER:
 INCREASE CLUSTER SIZE
 PATHE2: OSCILLATION OF PATHS
 PATHE2: THE ATTRACTOR OF THIS PATH WAS PROBABLY NOT INCLUDED IN THE CLUSTER:
 INCREASE CLUSTER SIZE
 PATHE2: OSCILLATION OF PATHS
 PATHE2: THE ATTRACTOR OF THIS PATH WAS PROBABLY NOT INCLUDED IN THE CLUSTER:
 INCREASE CLUSTER SIZE
 PATHE2: OSCILLATION OF PATHS
 PATHE2: THE ATTRACTOR OF THIS PATH WAS PROBABLY NOT INCLUDED IN THE CLUSTER:
 INCREASE CLUSTER SIZE
 PATHE2: OSCILLATION OF PATHS
 PATHE2: THE ATTRACTOR OF THIS PATH WAS PROBABLY NOT INCLUDED IN THE CLUSTER:
 INCREASE CLUSTER SIZE
 PATHE2: OSCILLATION OF PATHS
 PATHE2: THE ATTRACTOR OF THIS PATH WAS PROBABLY NOT INCLUDED IN THE CLUSTER:
 INCREASE CLUSTER SIZE
 PATHE2: OSCILLATION OF PATHS
 PATHE2: THE ATTRACTOR OF THIS PATH WAS PROBABLY NOT INCLUDED IN THE CLUSTER:
 INCREASE CLUSTER SIZE
 PATHE2: OSCILLATION OF PATHS
 PATHE2: THE ATTRACTOR OF THIS PATH WAS PROBABLY NOT INCLUDED IN THE CLUSTER:
 INCREASE CLUSTER SIZE
 PATHE2: OSCILLATION OF PATHS
 PATHE2: THE ATTRACTOR OF THIS PATH WAS PROBABLY NOT INCLUDED IN THE CLUSTER:
 INCREASE CLUSTER SIZE
 PATHE2: OSCILLATION OF PATHS
 PATHE2: THE ATTRACTOR OF THIS PATH WAS PROBABLY NOT INCLUDED IN THE CLUSTER:
 INCREASE CLUSTER SIZE
 PATHE2: OSCILLATION OF PATHS
 PATHE2: THE ATTRACTOR OF THIS PATH WAS PROBABLY NOT INCLUDED IN THE CLUSTER:
 INCREASE CLUSTER SIZE
 PATHE2: OSCILLATION OF PATHS
 PATHE2: THE ATTRACTOR OF THIS PATH WAS PROBABLY NOT INCLUDED IN THE CLUSTER:
 INCREASE CLUSTER SIZE
 PATHE2: OSCILLATION OF PATHS
 PATHE2: THE ATTRACTOR OF THIS PATH WAS PROBABLY NOT INCLUDED IN THE CLUSTER:
 INCREASE CLUSTER SIZE
 PATHE2: OSCILLATION OF PATHS
 PATHE2: THE ATTRACTOR OF THIS PATH WAS PROBABLY NOT INCLUDED IN THE CLUSTER:
 INCREASE CLUSTER SIZE
 PATHE2: OSCILLATION OF PATHS
 PATHE2: THE ATTRACTOR OF THIS PATH WAS PROBABLY NOT INCLUDED IN THE CLUSTER:
 INCREASE CLUSTER SIZE
 PATHE2: OSCILLATION OF PATHS
 PATHE2: THE ATTRACTOR OF THIS PATH WAS PROBABLY NOT INCLUDED IN THE CLUSTER:
 INCREASE CLUSTER SIZE
 PATHE2: OSCILLATION OF PATHS
 PATHE2: THE ATTRACTOR OF THIS PATH WAS PROBABLY NOT INCLUDED IN THE CLUSTER:
 INCREASE CLUSTER SIZE
 PATHE2: OSCILLATION OF PATHS
 PATHE2: THE ATTRACTOR OF THIS PATH WAS PROBABLY NOT INCLUDED IN THE CLUSTER:
 INCREASE CLUSTER SIZE
 PATHE2: OSCILLATION OF PATHS
 PATHE2: THE ATTRACTOR OF THIS PATH WAS PROBABLY NOT INCLUDED IN THE CLUSTER:
 INCREASE CLUSTER SIZE
 PATHE2: OSCILLATION OF PATHS
 PATHE2: THE ATTRACTOR OF THIS PATH WAS PROBABLY NOT INCLUDED IN THE CLUSTER:
 INCREASE CLUSTER SIZE
 PATHE2: OSCILLATION OF PATHS
 PATHE2: THE ATTRACTOR OF THIS PATH WAS PROBABLY NOT INCLUDED IN THE CLUSTER:
 INCREASE CLUSTER SIZE
 PATHE2: OSCILLATION OF PATHS
 PATHE2: THE ATTRACTOR OF THIS PATH WAS PROBABLY NOT INCLUDED IN THE CLUSTER:
 INCREASE CLUSTER SIZE
 PATHE2: OSCILLATION OF PATHS
 PATHE2: THE ATTRACTOR OF THIS PATH WAS PROBABLY NOT INCLUDED IN THE CLUSTER:
 INCREASE CLUSTER SIZE
 PATHE2: OSCILLATION OF PATHS
 PATHE2: THE ATTRACTOR OF THIS PATH WAS PROBABLY NOT INCLUDED IN THE CLUSTER:
 INCREASE CLUSTER SIZE
 PATHE2: OSCILLATION OF PATHS
 PATHE2: THE ATTRACTOR OF THIS PATH WAS PROBABLY NOT INCLUDED IN THE CLUSTER:
 INCREASE CLUSTER SIZE
 PATHE2: OSCILLATION OF PATHS
 PATHE2: THE ATTRACTOR OF THIS PATH WAS PROBABLY NOT INCLUDED IN THE CLUSTER:
 INCREASE CLUSTER SIZE
 PATHE2: OSCILLATION OF PATHS
 PATHE2: THE ATTRACTOR OF THIS PATH WAS PROBABLY NOT INCLUDED IN THE CLUSTER:
 INCREASE CLUSTER SIZE
 PATHE2: OSCILLATION OF PATHS
 PATHE2: THE ATTRACTOR OF THIS PATH WAS PROBABLY NOT INCLUDED IN THE CLUSTER:
 INCREASE CLUSTER SIZE
 PATHE2: OSCILLATION OF PATHS
 PATHE2: THE ATTRACTOR OF THIS PATH WAS PROBABLY NOT INCLUDED IN THE CLUSTER:
 INCREASE CLUSTER SIZE
 PATHE2: OSCILLATION OF PATHS
 PATHE2: THE ATTRACTOR OF THIS PATH WAS PROBABLY NOT INCLUDED IN THE CLUSTER:
 INCREASE CLUSTER SIZE
 PATHE2: OSCILLATION OF PATHS
 PATHE2: THE ATTRACTOR OF THIS PATH WAS PROBABLY NOT INCLUDED IN THE CLUSTER:
 INCREASE CLUSTER SIZE
 PATHE2: OSCILLATION OF PATHS
 PATHE2: THE ATTRACTOR OF THIS PATH WAS PROBABLY NOT INCLUDED IN THE CLUSTER:
 INCREASE CLUSTER SIZE
 PATHE2: OSCILLATION OF PATHS
 PATHE2: THE ATTRACTOR OF THIS PATH WAS PROBABLY NOT INCLUDED IN THE CLUSTER:
 INCREASE CLUSTER SIZE
 PATHE2: OSCILLATION OF PATHS
 PATHE2: THE ATTRACTOR OF THIS PATH WAS PROBABLY NOT INCLUDED IN THE CLUSTER:
 INCREASE CLUSTER SIZE
 PATHE2: OSCILLATION OF PATHS
 PATHE2: THE ATTRACTOR OF THIS PATH WAS PROBABLY NOT INCLUDED IN THE CLUSTER:
 INCREASE CLUSTER SIZE
 PATHE2: OSCILLATION OF PATHS
 PATHE2: THE ATTRACTOR OF THIS PATH WAS PROBABLY NOT INCLUDED IN THE CLUSTER:
 INCREASE CLUSTER SIZE
 PATHE2: OSCILLATION OF PATHS
 PATHE2: THE ATTRACTOR OF THIS PATH WAS PROBABLY NOT INCLUDED IN THE CLUSTER:
 INCREASE CLUSTER SIZE
 PATHE2: OSCILLATION OF PATHS
 PATHE2: THE ATTRACTOR OF THIS PATH WAS PROBABLY NOT INCLUDED IN THE CLUSTER:
 INCREASE CLUSTER SIZE
 PATHE2: OSCILLATION OF PATHS
 PATHE2: THE ATTRACTOR OF THIS PATH WAS PROBABLY NOT INCLUDED IN THE CLUSTER:
 INCREASE CLUSTER SIZE
 PATHE2: OSCILLATION OF PATHS
 PATHE2: THE ATTRACTOR OF THIS PATH WAS PROBABLY NOT INCLUDED IN THE CLUSTER:
 INCREASE CLUSTER SIZE
 PATHE2: OSCILLATION OF PATHS
 PATHE2: THE ATTRACTOR OF THIS PATH WAS PROBABLY NOT INCLUDED IN THE CLUSTER:
 INCREASE CLUSTER SIZE
 PATHE2: OSCILLATION OF PATHS
 PATHE2: THE ATTRACTOR OF THIS PATH WAS PROBABLY NOT INCLUDED IN THE CLUSTER:
 INCREASE CLUSTER SIZE
 PATHE2: OSCILLATION OF PATHS
 PATHE2: THE ATTRACTOR OF THIS PATH WAS PROBABLY NOT INCLUDED IN THE CLUSTER:
 INCREASE CLUSTER SIZE
 PATHE2: OSCILLATION OF PATHS
 PATHE2: THE ATTRACTOR OF THIS PATH WAS PROBABLY NOT INCLUDED IN THE CLUSTER:
 INCREASE CLUSTER SIZE
 PATHE2: OSCILLATION OF PATHS
 PATHE2: THE ATTRACTOR OF THIS PATH WAS PROBABLY NOT INCLUDED IN THE CLUSTER:
 INCREASE CLUSTER SIZE
 PATHE2: OSCILLATION OF PATHS
 PATHE2: THE ATTRACTOR OF THIS PATH WAS PROBABLY NOT INCLUDED IN THE CLUSTER:
 INCREASE CLUSTER SIZE
 PATHE2: OSCILLATION OF PATHS
 PATHE2: THE ATTRACTOR OF THIS PATH WAS PROBABLY NOT INCLUDED IN THE CLUSTER:
 INCREASE CLUSTER SIZE
 PATHE2: OSCILLATION OF PATHS
 PATHE2: THE ATTRACTOR OF THIS PATH WAS PROBABLY NOT INCLUDED IN THE CLUSTER:
 INCREASE CLUSTER SIZE
 PATHE2: OSCILLATION OF PATHS
 PATHE2: THE ATTRACTOR OF THIS PATH WAS PROBABLY NOT INCLUDED IN THE CLUSTER:
 INCREASE CLUSTER SIZE
 PATHE2: OSCILLATION OF PATHS
 PATHE2: THE ATTRACTOR OF THIS PATH WAS PROBABLY NOT INCLUDED IN THE CLUSTER:
 INCREASE CLUSTER SIZE
 PATHE2: OSCILLATION OF PATHS
 PATHE2: THE ATTRACTOR OF THIS PATH WAS PROBABLY NOT INCLUDED IN THE CLUSTER:
 INCREASE CLUSTER SIZE
 PATHE2: OSCILLATION OF PATHS
 PATHE2: THE ATTRACTOR OF THIS PATH WAS PROBABLY NOT INCLUDED IN THE CLUSTER:
 INCREASE CLUSTER SIZE
 PATHE2: OSCILLATION OF PATHS
 PATHE2: THE ATTRACTOR OF THIS PATH WAS PROBABLY NOT INCLUDED IN THE CLUSTER:
 INCREASE CLUSTER SIZE
 PATHE2: OSCILLATION OF PATHS
 PATHE2: THE ATTRACTOR OF THIS PATH WAS PROBABLY NOT INCLUDED IN THE CLUSTER:
 INCREASE CLUSTER SIZE
 PATHE2: OSCILLATION OF PATHS
 PATHE2: THE ATTRACTOR OF THIS PATH WAS PROBABLY NOT INCLUDED IN THE CLUSTER:
 INCREASE CLUSTER SIZE
 PATHE2: OSCILLATION OF PATHS
 PATHE2: THE ATTRACTOR OF THIS PATH WAS PROBABLY NOT INCLUDED IN THE CLUSTER:
 INCREASE CLUSTER SIZE
 PATHE2: OSCILLATION OF PATHS
 PATHE2: THE ATTRACTOR OF THIS PATH WAS PROBABLY NOT INCLUDED IN THE CLUSTER:
 INCREASE CLUSTER SIZE
 PATHE2: OSCILLATION OF PATHS
 PATHE2: THE ATTRACTOR OF THIS PATH WAS PROBABLY NOT INCLUDED IN THE CLUSTER:
 INCREASE CLUSTER SIZE
 PATHE2: OSCILLATION OF PATHS
 PATHE2: THE ATTRACTOR OF THIS PATH WAS PROBABLY NOT INCLUDED IN THE CLUSTER:
 INCREASE CLUSTER SIZE
 PATHE2: OSCILLATION OF PATHS
 PATHE2: THE ATTRACTOR OF THIS PATH WAS PROBABLY NOT INCLUDED IN THE CLUSTER:
 INCREASE CLUSTER SIZE
 PATHE2: OSCILLATION OF PATHS
 PATHE2: THE ATTRACTOR OF THIS PATH WAS PROBABLY NOT INCLUDED IN THE CLUSTER:
 INCREASE CLUSTER SIZE
 PATHE2: OSCILLATION OF PATHS
 PATHE2: THE ATTRACTOR OF THIS PATH WAS PROBABLY NOT INCLUDED IN THE CLUSTER:
 INCREASE CLUSTER SIZE
 PATHE2: OSCILLATION OF PATHS
 PATHE2: THE ATTRACTOR OF THIS PATH WAS PROBABLY NOT INCLUDED IN THE CLUSTER:
 INCREASE CLUSTER SIZE
 PATHE2: OSCILLATION OF PATHS
 PATHE2: THE ATTRACTOR OF THIS PATH WAS PROBABLY NOT INCLUDED IN THE CLUSTER:
 INCREASE CLUSTER SIZE
 PATHE2: OSCILLATION OF PATHS
 PATHE2: THE ATTRACTOR OF THIS PATH WAS PROBABLY NOT INCLUDED IN THE CLUSTER:
 INCREASE CLUSTER SIZE
 PATHE2: OSCILLATION OF PATHS
 PATHE2: THE ATTRACTOR OF THIS PATH WAS PROBABLY NOT INCLUDED IN THE CLUSTER:
 INCREASE CLUSTER SIZE
 PATHE2: OSCILLATION OF PATHS
 PATHE2: THE ATTRACTOR OF THIS PATH WAS PROBABLY NOT INCLUDED IN THE CLUSTER:
 INCREASE CLUSTER SIZE
 PATHE2: OSCILLATION OF PATHS
 PATHE2: THE ATTRACTOR OF THIS PATH WAS PROBABLY NOT INCLUDED IN THE CLUSTER:
 INCREASE CLUSTER SIZE
 PATHE2: OSCILLATION OF PATHS
 PATHE2: THE ATTRACTOR OF THIS PATH WAS PROBABLY NOT INCLUDED IN THE CLUSTER:
 INCREASE CLUSTER SIZE
 PATHE2: OSCILLATION OF PATHS
 PATHE2: THE ATTRACTOR OF THIS PATH WAS PROBABLY NOT INCLUDED IN THE CLUSTER:
 INCREASE CLUSTER SIZE
 PATHE2: OSCILLATION OF PATHS
 PATHE2: THE ATTRACTOR OF THIS PATH WAS PROBABLY NOT INCLUDED IN THE CLUSTER:
 INCREASE CLUSTER SIZE
 PATHE2: OSCILLATION OF PATHS
 PATHE2: THE ATTRACTOR OF THIS PATH WAS PROBABLY NOT INCLUDED IN THE CLUSTER:
 INCREASE CLUSTER SIZE
 PATHE2: OSCILLATION OF PATHS
 PATHE2: THE ATTRACTOR OF THIS PATH WAS PROBABLY NOT INCLUDED IN THE CLUSTER:
 INCREASE CLUSTER SIZE
 PATHE2: OSCILLATION OF PATHS
 PATHE2: THE ATTRACTOR OF THIS PATH WAS PROBABLY NOT INCLUDED IN THE CLUSTER:
 INCREASE CLUSTER SIZE
 PATHE2: OSCILLATION OF PATHS
 PATHE2: THE ATTRACTOR OF THIS PATH WAS PROBABLY NOT INCLUDED IN THE CLUSTER:
 INCREASE CLUSTER SIZE
 PATHE2: OSCILLATION OF PATHS
 PATHE2: THE ATTRACTOR OF THIS PATH WAS PROBABLY NOT INCLUDED IN THE CLUSTER:
 INCREASE CLUSTER SIZE
 PATHE2: OSCILLATION OF PATHS
 PATHE2: THE ATTRACTOR OF THIS PATH WAS PROBABLY NOT INCLUDED IN THE CLUSTER:
 INCREASE CLUSTER SIZE
 PATHE2: OSCILLATION OF PATHS
 PATHE2: THE ATTRACTOR OF THIS PATH WAS PROBABLY NOT INCLUDED IN THE CLUSTER:
 INCREASE CLUSTER SIZE
 PATHE2: OSCILLATION OF PATHS
 PATHE2: THE ATTRACTOR OF THIS PATH WAS PROBABLY NOT INCLUDED IN THE CLUSTER:
 INCREASE CLUSTER SIZE
 PATHE2: OSCILLATION OF PATHS
 PATHE2: THE ATTRACTOR OF THIS PATH WAS PROBABLY NOT INCLUDED IN THE CLUSTER:
 INCREASE CLUSTER SIZE
 PATHE2: OSCILLATION OF PATHS
 PATHE2: THE ATTRACTOR OF THIS PATH WAS PROBABLY NOT INCLUDED IN THE CLUSTER:
 INCREASE CLUSTER SIZE
 PATHE2: OSCILLATION OF PATHS
 PATHE2: THE ATTRACTOR OF THIS PATH WAS PROBABLY NOT INCLUDED IN THE CLUSTER:
 INCREASE CLUSTER SIZE
 PATHE2: OSCILLATION OF PATHS
 PATHE2: THE ATTRACTOR OF THIS PATH WAS PROBABLY NOT INCLUDED IN THE CLUSTER:
 INCREASE CLUSTER SIZE
 PATHE2: OSCILLATION OF PATHS
 PATHE2: THE ATTRACTOR OF THIS PATH WAS PROBABLY NOT INCLUDED IN THE CLUSTER:
 INCREASE CLUSTER SIZE
 PATHE2: OSCILLATION OF PATHS
 PATHE2: THE ATTRACTOR OF THIS PATH WAS PROBABLY NOT INCLUDED IN THE CLUSTER:
 INCREASE CLUSTER SIZE
 PATHE2: OSCILLATION OF PATHS
 PATHE2: THE ATTRACTOR OF THIS PATH WAS PROBABLY NOT INCLUDED IN THE CLUSTER:
 INCREASE CLUSTER SIZE
 PATHE2: OSCILLATION OF PATHS
 PATHE2: THE ATTRACTOR OF THIS PATH WAS PROBABLY NOT INCLUDED IN THE CLUSTER:
 INCREASE CLUSTER SIZE
 PATHE2: OSCILLATION OF PATHS
 PATHE2: THE ATTRACTOR OF THIS PATH WAS PROBABLY NOT INCLUDED IN THE CLUSTER:
 INCREASE CLUSTER SIZE
 PATHE2: OSCILLATION OF PATHS
 PATHE2: THE ATTRACTOR OF THIS PATH WAS PROBABLY NOT INCLUDED IN THE CLUSTER:
 INCREASE CLUSTER SIZE
 PATHE2: OSCILLATION OF PATHS
 PATHE2: THE ATTRACTOR OF THIS PATH WAS PROBABLY NOT INCLUDED IN THE CLUSTER:
 INCREASE CLUSTER SIZE
 PATHE2: OSCILLATION OF PATHS
 PATHE2: THE ATTRACTOR OF THIS PATH WAS PROBABLY NOT INCLUDED IN THE CLUSTER:
 INCREASE CLUSTER SIZE
 SURFACE DETERMINATION(1st INTERSECTIONS) IS DONE
 TTTTTTTTTTTTTTTTTTTTTTTTTTTTTT ATBP        TELAPSE       66.54 TCPU       66.50

 ATOMIC POPULATIONS

              N   3.68401073468520E+00
              Q   2.31598926531480E+00

 ATOMIC ENERGIES

              L   7.85696933139458E-04
              G   3.62976371445384E+01
              K   3.62984128075717E+01
             EG  -3.63442874479858E+01
             EK  -3.63450641079137E+01
           VNEO  -8.02432720514198E+01
          VNEOC  -8.02948370193529E+01
           VNET  -1.16088463348638E+02
          VNETC  -1.16163062722978E+02

 ATOMIC FORCES

           FAXA   7.64223181672923E-04
           FAYA  -3.86233897376766E-04
           FAZA  -1.46431787066415E-01
           FBXA   2.02446225273612E-03
           FBYA  -5.01380932695895E-04
           FBZA  -4.34076623097228E-01

 RADIAL ATOMIC EXPECTATION VALUES

          R(-1)   1.33738786752366E+01
          R(+1)   2.35939827987658E+00
          R(+2)   2.55872430876377E+00
          R(+3)   3.70725300047744E+00
          R(+4)   6.52401560624697E+00
         GR(-1)  -2.42605273120429E+01
         GR( 0)  -8.02557365046088E+00
         GR(+1)  -5.40847185532492E+00
         GR(+2)  -6.81251492949720E+00

 ATOMIC VOLUMES AND RELATED POPULATIONS

           V001   2.12137544773683E+01
           N001   3.68205276058215E+00
           R001   9.99468521064659E-01
           V002   1.97003271436678E+01
           N002   3.67980918998258E+00
           R002   9.98859518876244E-01

 ATOMIC DIPOLE MOMENT VECTOR

             DX  -3.67907836192486E-03
             DY   9.90514033736772E-04
             DZ   4.37087343358649E-02
             DM   4.38744822520726E-02
            DCX   9.98661140502686E-04
            DCY  -2.68868389663205E-04
            DCZ  -1.18644427184602E-02
             CX   9.98661140502686E-04
             CY  -2.68868389663205E-04
[...]
 INCREASE CLUSTER SIZE
 PATHE2: OSCILLATION OF PATHS
 PATHE2: THE ATTRACTOR OF THIS PATH WAS PROBABLY NOT INCLUDED IN THE CLUSTER:
 INCREASE CLUSTER SIZE
 PATHE2: OSCILLATION OF PATHS
 PATHE2: THE ATTRACTOR OF THIS PATH WAS PROBABLY NOT INCLUDED IN THE CLUSTER:
 INCREASE CLUSTER SIZE
 PATHE2: OSCILLATION OF PATHS
 PATHE2: THE ATTRACTOR OF THIS PATH WAS PROBABLY NOT INCLUDED IN THE CLUSTER:
 INCREASE CLUSTER SIZE
 PATHE2: OSCILLATION OF PATHS
 PATHE2: THE ATTRACTOR OF THIS PATH WAS PROBABLY NOT INCLUDED IN THE CLUSTER:
 INCREASE CLUSTER SIZE
 PATHE2: OSCILLATION OF PATHS
 PATHE2: THE ATTRACTOR OF THIS PATH WAS PROBABLY NOT INCLUDED IN THE CLUSTER:
 INCREASE CLUSTER SIZE
 PATHE2: OSCILLATION OF PATHS
 PATHE2: THE ATTRACTOR OF THIS PATH WAS PROBABLY NOT INCLUDED IN THE CLUSTER:
 INCREASE CLUSTER SIZE
 PATHE2: OSCILLATION OF PATHS
 PATHE2: THE ATTRACTOR OF THIS PATH WAS PROBABLY NOT INCLUDED IN THE CLUSTER:
 INCREASE CLUSTER SIZE
 PATHE2: OSCILLATION OF PATHS
 PATHE2: THE ATTRACTOR OF THIS PATH WAS PROBABLY NOT INCLUDED IN THE CLUSTER:
 INCREASE CLUSTER SIZE
 PATHE2: OSCILLATION OF PATHS
 PATHE2: THE ATTRACTOR OF THIS PATH WAS PROBABLY NOT INCLUDED IN THE CLUSTER:
 INCREASE CLUSTER SIZE
 PATHE2: OSCILLATION OF PATHS
 PATHE2: THE ATTRACTOR OF THIS PATH WAS PROBABLY NOT INCLUDED IN THE CLUSTER:
 INCREASE CLUSTER SIZE
 PATHE2: OSCILLATION OF PATHS
 PATHE2: THE ATTRACTOR OF THIS PATH WAS PROBABLY NOT INCLUDED IN THE CLUSTER:
 INCREASE CLUSTER SIZE
 PATHE2: OSCILLATION OF PATHS
 PATHE2: THE ATTRACTOR OF THIS PATH WAS PROBABLY NOT INCLUDED IN THE CLUSTER:
 INCREASE CLUSTER SIZE
 PATHE2: OSCILLATION OF PATHS
 PATHE2: THE ATTRACTOR OF THIS PATH WAS PROBABLY NOT INCLUDED IN THE CLUSTER:
 INCREASE CLUSTER SIZE
 PATHE2: OSCILLATION OF PATHS
 PATHE2: THE ATTRACTOR OF THIS PATH WAS PROBABLY NOT INCLUDED IN THE CLUSTER:
 INCREASE CLUSTER SIZE
 PATHE2: OSCILLATION OF PATHS
 PATHE2: THE ATTRACTOR OF THIS PATH WAS PROBABLY NOT INCLUDED IN THE CLUSTER:
 INCREASE CLUSTER SIZE
 PATHE2: OSCILLATION OF PATHS
 PATHE2: THE ATTRACTOR OF THIS PATH WAS PROBABLY NOT INCLUDED IN THE CLUSTER:
 INCREASE CLUSTER SIZE
 PATHE2: OSCILLATION OF PATHS
 PATHE2: THE ATTRACTOR OF THIS PATH WAS PROBABLY NOT INCLUDED IN THE CLUSTER:
 INCREASE CLUSTER SIZE
 PATHE2: OSCILLATION OF PATHS
 PATHE2: THE ATTRACTOR OF THIS PATH WAS PROBABLY NOT INCLUDED IN THE CLUSTER:
 INCREASE CLUSTER SIZE
 PATHE2: OSCILLATION OF PATHS
 PATHE2: THE ATTRACTOR OF THIS PATH WAS PROBABLY NOT INCLUDED IN THE CLUSTER:
 INCREASE CLUSTER SIZE
 PATHE2: OSCILLATION OF PATHS
 PATHE2: THE ATTRACTOR OF THIS PATH WAS PROBABLY NOT INCLUDED IN THE CLUSTER:
 INCREASE CLUSTER SIZE
 PATHE2: OSCILLATION OF PATHS
 PATHE2: THE ATTRACTOR OF THIS PATH WAS PROBABLY NOT INCLUDED IN THE CLUSTER:
 INCREASE CLUSTER SIZE
 PATHE2: OSCILLATION OF PATHS
 PATHE2: THE ATTRACTOR OF THIS PATH WAS PROBABLY NOT INCLUDED IN THE CLUSTER:
 INCREASE CLUSTER SIZE
 PATHE2: OSCILLATION OF PATHS
 PATHE2: THE ATTRACTOR OF THIS PATH WAS PROBABLY NOT INCLUDED IN THE CLUSTER:
 INCREASE CLUSTER SIZE
 PATHE2: OSCILLATION OF PATHS
 PATHE2: THE ATTRACTOR OF THIS PATH WAS PROBABLY NOT INCLUDED IN THE CLUSTER:
 INCREASE CLUSTER SIZE
 PATHE2: OSCILLATION OF PATHS
 PATHE2: THE ATTRACTOR OF THIS PATH WAS PROBABLY NOT INCLUDED IN THE CLUSTER:
 INCREASE CLUSTER SIZE
 PATHE2: OSCILLATION OF PATHS
 PATHE2: THE ATTRACTOR OF THIS PATH WAS PROBABLY NOT INCLUDED IN THE CLUSTER:
 INCREASE CLUSTER SIZE
 PATHE2: OSCILLATION OF PATHS
 PATHE2: THE ATTRACTOR OF THIS PATH WAS PROBABLY NOT INCLUDED IN THE CLUSTER:
 INCREASE CLUSTER SIZE
 PATHE2: OSCILLATION OF PATHS
 PATHE2: THE ATTRACTOR OF THIS PATH WAS PROBABLY NOT INCLUDED IN THE CLUSTER:
 INCREASE CLUSTER SIZE
 PATHE2: OSCILLATION OF PATHS
 PATHE2: THE ATTRACTOR OF THIS PATH WAS PROBABLY NOT INCLUDED IN THE CLUSTER:
 INCREASE CLUSTER SIZE
 PATHE2: OSCILLATION OF PATHS
 PATHE2: THE ATTRACTOR OF THIS PATH WAS PROBABLY NOT INCLUDED IN THE CLUSTER:
 INCREASE CLUSTER SIZE
 PATHE2: OSCILLATION OF PATHS
 PATHE2: THE ATTRACTOR OF THIS PATH WAS PROBABLY NOT INCLUDED IN THE CLUSTER:
 INCREASE CLUSTER SIZE
 PATHE2: OSCILLATION OF PATHS
 PATHE2: THE ATTRACTOR OF THIS PATH WAS PROBABLY NOT INCLUDED IN THE CLUSTER:
 INCREASE CLUSTER SIZE
 PATHE2: OSCILLATION OF PATHS
 PATHE2: THE ATTRACTOR OF THIS PATH WAS PROBABLY NOT INCLUDED IN THE CLUSTER:
 INCREASE CLUSTER SIZE
 PATHE2: OSCILLATION OF PATHS
 PATHE2: THE ATTRACTOR OF THIS PATH WAS PROBABLY NOT INCLUDED IN THE CLUSTER:
 INCREASE CLUSTER SIZE
 PATHE2: OSCILLATION OF PATHS
 PATHE2: THE ATTRACTOR OF THIS PATH WAS PROBABLY NOT INCLUDED IN THE CLUSTER:
 INCREASE CLUSTER SIZE
 PATHE2: OSCILLATION OF PATHS
 PATHE2: THE ATTRACTOR OF THIS PATH WAS PROBABLY NOT INCLUDED IN THE CLUSTER:
 INCREASE CLUSTER SIZE
 PATHE2: OSCILLATION OF PATHS
 PATHE2: THE ATTRACTOR OF THIS PATH WAS PROBABLY NOT INCLUDED IN THE CLUSTER:
 INCREASE CLUSTER SIZE
 PATHE2: OSCILLATION OF PATHS
 PATHE2: THE ATTRACTOR OF THIS PATH WAS PROBABLY NOT INCLUDED IN THE CLUSTER:
 INCREASE CLUSTER SIZE
 PATHE2: OSCILLATION OF PATHS
 PATHE2: THE ATTRACTOR OF THIS PATH WAS PROBABLY NOT INCLUDED IN THE CLUSTER:
 INCREASE CLUSTER SIZE
 PATHE2: OSCILLATION OF PATHS
 PATHE2: THE ATTRACTOR OF THIS PATH WAS PROBABLY NOT INCLUDED IN THE CLUSTER:
 INCREASE CLUSTER SIZE
 PATHE2: OSCILLATION OF PATHS
 PATHE2: THE ATTRACTOR OF THIS PATH WAS PROBABLY NOT INCLUDED IN THE CLUSTER:
 INCREASE CLUSTER SIZE
 PATHE2: OSCILLATION OF PATHS
 PATHE2: THE ATTRACTOR OF THIS PATH WAS PROBABLY NOT INCLUDED IN THE CLUSTER:
 INCREASE CLUSTER SIZE
 PATHE2: OSCILLATION OF PATHS
 PATHE2: THE ATTRACTOR OF THIS PATH WAS PROBABLY NOT INCLUDED IN THE CLUSTER:
 INCREASE CLUSTER SIZE
 PATHE2: OSCILLATION OF PATHS
 PATHE2: THE ATTRACTOR OF THIS PATH WAS PROBABLY NOT INCLUDED IN THE CLUSTER:
 INCREASE CLUSTER SIZE
 PATHE2: OSCILLATION OF PATHS
 PATHE2: THE ATTRACTOR OF THIS PATH WAS PROBABLY NOT INCLUDED IN THE CLUSTER:
 INCREASE CLUSTER SIZE
 PATHE2: OSCILLATION OF PATHS
 PATHE2: THE ATTRACTOR OF THIS PATH WAS PROBABLY NOT INCLUDED IN THE CLUSTER:
 INCREASE CLUSTER SIZE
 PATHE2: OSCILLATION OF PATHS
 PATHE2: THE ATTRACTOR OF THIS PATH WAS PROBABLY NOT INCLUDED IN THE CLUSTER:
 INCREASE CLUSTER SIZE
 PATHE2: OSCILLATION OF PATHS
 PATHE2: THE ATTRACTOR OF THIS PATH WAS PROBABLY NOT INCLUDED IN THE CLUSTER:
 INCREASE CLUSTER SIZE
 PATHE2: OSCILLATION OF PATHS
 PATHE2: THE ATTRACTOR OF THIS PATH WAS PROBABLY NOT INCLUDED IN THE CLUSTER:
 INCREASE CLUSTER SIZE
 PATHE2: OSCILLATION OF PATHS
 PATHE2: THE ATTRACTOR OF THIS PATH WAS PROBABLY NOT INCLUDED IN THE CLUSTER:
 INCREASE CLUSTER SIZE
 PATHE2: OSCILLATION OF PATHS
 PATHE2: THE ATTRACTOR OF THIS PATH WAS PROBABLY NOT INCLUDED IN THE CLUSTER:
 INCREASE CLUSTER SIZE
 PATHE2: OSCILLATION OF PATHS
 PATHE2: THE ATTRACTOR OF THIS PATH WAS PROBABLY NOT INCLUDED IN THE CLUSTER:
 INCREASE CLUSTER SIZE
 PATHE2: OSCILLATION OF PATHS
 PATHE2: THE ATTRACTOR OF THIS PATH WAS PROBABLY NOT INCLUDED IN THE CLUSTER:
 INCREASE CLUSTER SIZE
 PATHE2: OSCILLATION OF PATHS
 PATHE2: THE ATTRACTOR OF THIS PATH WAS PROBABLY NOT INCLUDED IN THE CLUSTER:
 INCREASE CLUSTER SIZE
 PATHE2: OSCILLATION OF PATHS
 PATHE2: THE ATTRACTOR OF THIS PATH WAS PROBABLY NOT INCLUDED IN THE CLUSTER:
 INCREASE CLUSTER SIZE
 PATHE2: OSCILLATION OF PATHS
 PATHE2: THE ATTRACTOR OF THIS PATH WAS PROBABLY NOT INCLUDED IN THE CLUSTER:
 INCREASE CLUSTER SIZE
 PATHE2: OSCILLATION OF PATHS
 PATHE2: THE ATTRACTOR OF THIS PATH WAS PROBABLY NOT INCLUDED IN THE CLUSTER:
 INCREASE CLUSTER SIZE
 PATHE2: OSCILLATION OF PATHS
 PATHE2: THE ATTRACTOR OF THIS PATH WAS PROBABLY NOT INCLUDED IN THE CLUSTER:
 INCREASE CLUSTER SIZE
 PATHE2: OSCILLATION OF PATHS
 PATHE2: THE ATTRACTOR OF THIS PATH WAS PROBABLY NOT INCLUDED IN THE CLUSTER:
 INCREASE CLUSTER SIZE
 PATHE2: OSCILLATION OF PATHS
 PATHE2: THE ATTRACTOR OF THIS PATH WAS PROBABLY NOT INCLUDED IN THE CLUSTER:
 INCREASE CLUSTER SIZE
 PATHE2: OSCILLATION OF PATHS
 PATHE2: THE ATTRACTOR OF THIS PATH WAS PROBABLY NOT INCLUDED IN THE CLUSTER:
 INCREASE CLUSTER SIZE
 PATHE2: OSCILLATION OF PATHS
 PATHE2: THE ATTRACTOR OF THIS PATH WAS PROBABLY NOT INCLUDED IN THE CLUSTER:
 INCREASE CLUSTER SIZE
 PATHE2: OSCILLATION OF PATHS
 PATHE2: THE ATTRACTOR OF THIS PATH WAS PROBABLY NOT INCLUDED IN THE CLUSTER:
 INCREASE CLUSTER SIZE
 PATHE2: OSCILLATION OF PATHS
 PATHE2: THE ATTRACTOR OF THIS PATH WAS PROBABLY NOT INCLUDED IN THE CLUSTER:
 INCREASE CLUSTER SIZE
 PATHE2: OSCILLATION OF PATHS
 PATHE2: THE ATTRACTOR OF THIS PATH WAS PROBABLY NOT INCLUDED IN THE CLUSTER:
 INCREASE CLUSTER SIZE
 PATHE2: OSCILLATION OF PATHS
 PATHE2: THE ATTRACTOR OF THIS PATH WAS PROBABLY NOT INCLUDED IN THE CLUSTER:
 INCREASE CLUSTER SIZE
 PATHE2: OSCILLATION OF PATHS
 PATHE2: THE ATTRACTOR OF THIS PATH WAS PROBABLY NOT INCLUDED IN THE CLUSTER:
 INCREASE CLUSTER SIZE
 PATHE2: OSCILLATION OF PATHS
 PATHE2: THE ATTRACTOR OF THIS PATH WAS PROBABLY NOT INCLUDED IN THE CLUSTER:
 INCREASE CLUSTER SIZE
 PATHE2: OSCILLATION OF PATHS
 PATHE2: THE ATTRACTOR OF THIS PATH WAS PROBABLY NOT INCLUDED IN THE CLUSTER:
 INCREASE CLUSTER SIZE
 PATHE2: OSCILLATION OF PATHS
 PATHE2: THE ATTRACTOR OF THIS PATH WAS PROBABLY NOT INCLUDED IN THE CLUSTER:
 INCREASE CLUSTER SIZE
 PATHE2: OSCILLATION OF PATHS
 PATHE2: THE ATTRACTOR OF THIS PATH WAS PROBABLY NOT INCLUDED IN THE CLUSTER:
 INCREASE CLUSTER SIZE
 PATHE2: OSCILLATION OF PATHS
 PATHE2: THE ATTRACTOR OF THIS PATH WAS PROBABLY NOT INCLUDED IN THE CLUSTER:
 INCREASE CLUSTER SIZE
 PATHE2: OSCILLATION OF PATHS
 PATHE2: THE ATTRACTOR OF THIS PATH WAS PROBABLY NOT INCLUDED IN THE CLUSTER:
 INCREASE CLUSTER SIZE
 PATHE2: OSCILLATION OF PATHS
 PATHE2: THE ATTRACTOR OF THIS PATH WAS PROBABLY NOT INCLUDED IN THE CLUSTER:
 INCREASE CLUSTER SIZE
 PATHE2: OSCILLATION OF PATHS
 PATHE2: THE ATTRACTOR OF THIS PATH WAS PROBABLY NOT INCLUDED IN THE CLUSTER:
 INCREASE CLUSTER SIZE
 PATHE2: OSCILLATION OF PATHS
 PATHE2: THE ATTRACTOR OF THIS PATH WAS PROBABLY NOT INCLUDED IN THE CLUSTER:
 INCREASE CLUSTER SIZE
 PATHE2: OSCILLATION OF PATHS
 PATHE2: THE ATTRACTOR OF THIS PATH WAS PROBABLY NOT INCLUDED IN THE CLUSTER:
 INCREASE CLUSTER SIZE
 PATHE2: OSCILLATION OF PATHS
 PATHE2: THE ATTRACTOR OF THIS PATH WAS PROBABLY NOT INCLUDED IN THE CLUSTER:
 INCREASE CLUSTER SIZE
 PATHE2: OSCILLATION OF PATHS
 PATHE2: THE ATTRACTOR OF THIS PATH WAS PROBABLY NOT INCLUDED IN THE CLUSTER:
 INCREASE CLUSTER SIZE
 PATHE2: OSCILLATION OF PATHS
 PATHE2: THE ATTRACTOR OF THIS PATH WAS PROBABLY NOT INCLUDED IN THE CLUSTER:
 INCREASE CLUSTER SIZE
 PATHE2: OSCILLATION OF PATHS
 PATHE2: THE ATTRACTOR OF THIS PATH WAS PROBABLY NOT INCLUDED IN THE CLUSTER:
 INCREASE CLUSTER SIZE
 PATHE2: OSCILLATION OF PATHS
 PATHE2: THE ATTRACTOR OF THIS PATH WAS PROBABLY NOT INCLUDED IN THE CLUSTER:
 INCREASE CLUSTER SIZE
 PATHE2: OSCILLATION OF PATHS
 PATHE2: THE ATTRACTOR OF THIS PATH WAS PROBABLY NOT INCLUDED IN THE CLUSTER:
 INCREASE CLUSTER SIZE
 PATHE2: OSCILLATION OF PATHS
 PATHE2: THE ATTRACTOR OF THIS PATH WAS PROBABLY NOT INCLUDED IN THE CLUSTER:
 INCREASE CLUSTER SIZE
 PATHE2: OSCILLATION OF PATHS
 PATHE2: THE ATTRACTOR OF THIS PATH WAS PROBABLY NOT INCLUDED IN THE CLUSTER:
 INCREASE CLUSTER SIZE
 PATHE2: OSCILLATION OF PATHS
 PATHE2: THE ATTRACTOR OF THIS PATH WAS PROBABLY NOT INCLUDED IN THE CLUSTER:
 INCREASE CLUSTER SIZE
 PATHE2: OSCILLATION OF PATHS
 PATHE2: THE ATTRACTOR OF THIS PATH WAS PROBABLY NOT INCLUDED IN THE CLUSTER:
 INCREASE CLUSTER SIZE
 PATHE2: OSCILLATION OF PATHS
 PATHE2: THE ATTRACTOR OF THIS PATH WAS PROBABLY NOT INCLUDED IN THE CLUSTER:
 INCREASE CLUSTER SIZE
 PATHE2: OSCILLATION OF PATHS
 PATHE2: THE ATTRACTOR OF THIS PATH WAS PROBABLY NOT INCLUDED IN THE CLUSTER:
 INCREASE CLUSTER SIZE
 PATHE2: OSCILLATION OF PATHS
 PATHE2: THE ATTRACTOR OF THIS PATH WAS PROBABLY NOT INCLUDED IN THE CLUSTER:
 INCREASE CLUSTER SIZE
 PATHE2: OSCILLATION OF PATHS
 PATHE2: THE ATTRACTOR OF THIS PATH WAS PROBABLY NOT INCLUDED IN THE CLUSTER:
 INCREASE CLUSTER SIZE
 PATHE2: OSCILLATION OF PATHS
 PATHE2: THE ATTRACTOR OF THIS PATH WAS PROBABLY NOT INCLUDED IN THE CLUSTER:
 INCREASE CLUSTER SIZE
 PATHE2: OSCILLATION OF PATHS
 PATHE2: THE ATTRACTOR OF THIS PATH WAS PROBABLY NOT INCLUDED IN THE CLUSTER:
 INCREASE CLUSTER SIZE
 PATHE2: OSCILLATION OF PATHS
 PATHE2: THE ATTRACTOR OF THIS PATH WAS PROBABLY NOT INCLUDED IN THE CLUSTER:
 INCREASE CLUSTER SIZE
 PATHE2: OSCILLATION OF PATHS
 PATHE2: THE ATTRACTOR OF THIS PATH WAS PROBABLY NOT INCLUDED IN THE CLUSTER:
 INCREASE CLUSTER SIZE
 PATHE2: OSCILLATION OF PATHS
 PATHE2: THE ATTRACTOR OF THIS PATH WAS PROBABLY NOT INCLUDED IN THE CLUSTER:
 INCREASE CLUSTER SIZE
 PATHE2: OSCILLATION OF PATHS
 PATHE2: THE ATTRACTOR OF THIS PATH WAS PROBABLY NOT INCLUDED IN THE CLUSTER:
 INCREASE CLUSTER SIZE
 PATHE2: OSCILLATION OF PATHS
 PATHE2: THE ATTRACTOR OF THIS PATH WAS PROBABLY NOT INCLUDED IN THE CLUSTER:
 INCREASE CLUSTER SIZE
 PATHE2: OSCILLATION OF PATHS
 PATHE2: THE ATTRACTOR OF THIS PATH WAS PROBABLY NOT INCLUDED IN THE CLUSTER:
 INCREASE CLUSTER SIZE
 PATHE2: OSCILLATION OF PATHS
 PATHE2: THE ATTRACTOR OF THIS PATH WAS PROBABLY NOT INCLUDED IN THE CLUSTER:
 INCREASE CLUSTER SIZE
 PATHE2: OSCILLATION OF PATHS
 PATHE2: THE ATTRACTOR OF THIS PATH WAS PROBABLY NOT INCLUDED IN THE CLUSTER:
 INCREASE CLUSTER SIZE
 PATHE2: OSCILLATION OF PATHS
 PATHE2: THE ATTRACTOR OF THIS PATH WAS PROBABLY NOT INCLUDED IN THE CLUSTER:
 INCREASE CLUSTER SIZE
 PATHE2: OSCILLATION OF PATHS
 PATHE2: THE ATTRACTOR OF THIS PATH WAS PROBABLY NOT INCLUDED IN THE CLUSTER:
 INCREASE CLUSTER SIZE
 PATHE2: OSCILLATION OF PATHS
 PATHE2: THE ATTRACTOR OF THIS PATH WAS PROBABLY NOT INCLUDED IN THE CLUSTER:
 INCREASE CLUSTER SIZE
 PATHE2: OSCILLATION OF PATHS
 PATHE2: THE ATTRACTOR OF THIS PATH WAS PROBABLY NOT INCLUDED IN THE CLUSTER:
 INCREASE CLUSTER SIZE
 PATHE2: OSCILLATION OF PATHS
 PATHE2: THE ATTRACTOR OF THIS PATH WAS PROBABLY NOT INCLUDED IN THE CLUSTER:
 INCREASE CLUSTER SIZE
 PATHE2: OSCILLATION OF PATHS
 PATHE2: THE ATTRACTOR OF THIS PATH WAS PROBABLY NOT INCLUDED IN THE CLUSTER:
 INCREASE CLUSTER SIZE
 PATHE2: OSCILLATION OF PATHS
 PATHE2: THE ATTRACTOR OF THIS PATH WAS PROBABLY NOT INCLUDED IN THE CLUSTER:
 INCREASE CLUSTER SIZE
 PATHE2: OSCILLATION OF PATHS
 PATHE2: THE ATTRACTOR OF THIS PATH WAS PROBABLY NOT INCLUDED IN THE CLUSTER:
 INCREASE CLUSTER SIZE
 PATHE2: OSCILLATION OF PATHS
 PATHE2: THE ATTRACTOR OF THIS PATH WAS PROBABLY NOT INCLUDED IN THE CLUSTER:
 INCREASE CLUSTER SIZE
 PATHE2: OSCILLATION OF PATHS
 PATHE2: THE ATTRACTOR OF THIS PATH WAS PROBABLY NOT INCLUDED IN THE CLUSTER:
 INCREASE CLUSTER SIZE
 PATHE2: OSCILLATION OF PATHS
 PATHE2: THE ATTRACTOR OF THIS PATH WAS PROBABLY NOT INCLUDED IN THE CLUSTER:
 INCREASE CLUSTER SIZE
 PATHE2: OSCILLATION OF PATHS
 PATHE2: THE ATTRACTOR OF THIS PATH WAS PROBABLY NOT INCLUDED IN THE CLUSTER:
 INCREASE CLUSTER SIZE
 PATHE2: OSCILLATION OF PATHS
 PATHE2: THE ATTRACTOR OF THIS PATH WAS PROBABLY NOT INCLUDED IN THE CLUSTER:
 INCREASE CLUSTER SIZE
 PATHE2: OSCILLATION OF PATHS
 PATHE2: THE ATTRACTOR OF THIS PATH WAS PROBABLY NOT INCLUDED IN THE CLUSTER:
 INCREASE CLUSTER SIZE
 PATHE2: OSCILLATION OF PATHS
 PATHE2: THE ATTRACTOR OF THIS PATH WAS PROBABLY NOT INCLUDED IN THE CLUSTER:
 INCREASE CLUSTER SIZE
 PATHE2: OSCILLATION OF PATHS
 PATHE2: THE ATTRACTOR OF THIS PATH WAS PROBABLY NOT INCLUDED IN THE CLUSTER:
 INCREASE CLUSTER SIZE
 PATHE2: OSCILLATION OF PATHS
 PATHE2: THE ATTRACTOR OF THIS PATH WAS PROBABLY NOT INCLUDED IN THE CLUSTER:
 INCREASE CLUSTER SIZE
 PATHE2: OSCILLATION OF PATHS
 PATHE2: THE ATTRACTOR OF THIS PATH WAS PROBABLY NOT INCLUDED IN THE CLUSTER:
 INCREASE CLUSTER SIZE
 PATHE2: OSCILLATION OF PATHS
 PATHE2: THE ATTRACTOR OF THIS PATH WAS PROBABLY NOT INCLUDED IN THE CLUSTER:
 INCREASE CLUSTER SIZE
 PATHE2: OSCILLATION OF PATHS
 PATHE2: THE ATTRACTOR OF THIS PATH WAS PROBABLY NOT INCLUDED IN THE CLUSTER:
 INCREASE CLUSTER SIZE
 PATHE2: OSCILLATION OF PATHS
 PATHE2: THE ATTRACTOR OF THIS PATH WAS PROBABLY NOT INCLUDED IN THE CLUSTER:
 INCREASE CLUSTER SIZE
 PATHE2: OSCILLATION OF PATHS
 PATHE2: THE ATTRACTOR OF THIS PATH WAS PROBABLY NOT INCLUDED IN THE CLUSTER:
 INCREASE CLUSTER SIZE
 PATHE2: OSCILLATION OF PATHS
 PATHE2: THE ATTRACTOR OF THIS PATH WAS PROBABLY NOT INCLUDED IN THE CLUSTER:
 INCREASE CLUSTER SIZE
 PATHE2: OSCILLATION OF PATHS
 PATHE2: THE ATTRACTOR OF THIS PATH WAS PROBABLY NOT INCLUDED IN THE CLUSTER:
 INCREASE CLUSTER SIZE
 PATHE2: OSCILLATION OF PATHS
 PATHE2: THE ATTRACTOR OF THIS PATH WAS PROBABLY NOT INCLUDED IN THE CLUSTER:
 INCREASE CLUSTER SIZE
 PATHE2: OSCILLATION OF PATHS
 PATHE2: THE ATTRACTOR OF THIS PATH WAS PROBABLY NOT INCLUDED IN THE CLUSTER:
 INCREASE CLUSTER SIZE
 PATHE2: OSCILLATION OF PATHS
 PATHE2: THE ATTRACTOR OF THIS PATH WAS PROBABLY NOT INCLUDED IN THE CLUSTER:
 INCREASE CLUSTER SIZE
 PATHE2: OSCILLATION OF PATHS
 PATHE2: THE ATTRACTOR OF THIS PATH WAS PROBABLY NOT INCLUDED IN THE CLUSTER:
 INCREASE CLUSTER SIZE
 SURFACE DETERMINATION(1st INTERSECTIONS) IS DONE
 TTTTTTTTTTTTTTTTTTTTTTTTTTTTTT ATBP        TELAPSE      314.41 TCPU      313.89

 ATOMIC POPULATIONS

              N   6.00175500090927E-01
              Q   3.99824499909073E-01

 ATOMIC ENERGIES

              L  -2.41463873225684E-04
              G   4.55404263995811E-01
              K   4.55162802125754E-01
             EG  -4.55989556835178E-01
             EK  -4.55747784634467E-01
           VNEO  -9.13796423301328E-01
          VNEOC  -9.14383636186101E-01
           VNET  -5.71427496607757E+00
          VNETC  -5.71794700483987E+00

 ATOMIC FORCES

           FAXA   5.34581368467430E-06
           FAYA  -1.99293782317361E-04
           FAZA   7.53196184848714E-02
           FBXA  -1.74595489123865E-06
           FBYA   3.22121090019909E-01
           FBZA  -1.27127789985316E+00

 RADIAL ATOMIC EXPECTATION VALUES

          R(-1)   9.13796423301328E-01
          R(+1)   5.73624992544855E-01
          R(+2)   7.38422057009236E-01
          R(+3)   1.20718154001076E+00
          R(+4)   2.38924039960386E+00
         GR(-1)  -1.21570467542573E+00
         GR( 0)  -1.26016495203359E+00
         GR(+1)  -1.71364862499335E+00
         GR(+2)  -2.90348867485599E+00

 ATOMIC VOLUMES AND RELATED POPULATIONS

           V001   2.80075269157246E+01
           N001   5.87634455152863E-01
           R001   9.79104370411381E-01
           V002   2.09213924024284E+01
           N002   5.77442761116958E-01
           R002   9.62123180685441E-01

 ATOMIC DIPOLE MOMENT VECTOR

             DX   4.64033024234066E-06
             DY  -1.14645764815093E-03
             DZ   1.63807911038597E-01
             DM   1.63811922965029E-01
            DCX  -7.73162223655855E-06
            DCY   1.91020401195523E-03
            DCZ  -2.72933352017502E-01
             CX  -7.73162223655855E-06
             CY   2.14501173085827E+00
             CZ  -3.49486916719989E+00

 ATOMIC QUADRUPOLE MOMENT TENSOR

            QXX  -4.68415652016929E-02
            QXY   1.74146460714384E-05
            QXZ   7.88371897791792E-07
            QYY  -6.65429562935965E-02
            QYZ   1.00512655084280E-02
            QZZ   1.13384521495290E-01

 ATOMIC SHANNON INFORMATION ENTROPY

            IUN   1.72616751435705E+00
            INO   2.36557142984722E+00

     EIGENVALUES OF QUADRUPOLE MOMENT TENSOR:
      -6.71027223143132E-02   -4.68415503742360E-02    1.13944272688549E-01

     EIGENVECTORS OF QUADRUPOLE MOMENT TENSOR:
      -8.56015367659408E-04   -9.99999633559176E-01    1.09180444888299E-05
       9.98452565217838E-01   -8.54083971549430E-04    5.56034670725390E-02
      -5.56034373722319E-02    5.84985718362720E-05    9.98452930453063E-01

 TTTTTTTTTTTTTTTTTTTTTTTTTTTTTT ATBP        TELAPSE      315.37 TCPU      314.85
 TTTTTTTTTTTTTTTTTTTTTTTTTTTTTT ATBP        TELAPSE      315.37 TCPU      314.85
 TTTTTTTTTTTTTTTTTTTTTTTTTTTTTT END         TELAPSE      315.37 TCPU      314.85
 EEEEEEEEEE TERMINATION  DATE 06 08 2025 TIME 17:59:56.1
