
         
 *******************************************************************************
 *                                                                             *
 *                               CRYSTAL23                                     *
 *                      public : 1.0.1 - October 2022                          *
 *                       HTTP://WWW.CRYSTAL.UNITO.IT                           *
 *                                                                             *
 *                              MAIN AUTHORS                                   *
 *                                                                             *
 *  R. DOVESI(1,11), V.R. SAUNDERS(2), C. ROETTI(1,11), R. ORLANDO(1,11),      *
 *  C.M. ZICOVICH-WILSON(1,3), F. PASCALE(4), B. CIVALLERI(1,11),              *
 *  K. DOLL(5), N.M. HARRISON(6), I.J. BUSH(7), Ph. D'ARCO(8),                 *
 *  M. LLUNELL(9), M. CAUSA'(10), Y. NOEL(8), L. MASCHIO(1,11), A. ERBA(1,11)  *
 *  M. RE'RAT(14), S. CASASSA(1,11), B.G. SEARLE(2), J.K. DESMARAIS(1)         *
 *                                                                             *
 *        CONTRIBUTIONS TO THE CODE HAVE ALSO BEEN GIVEN BY                    *
 *                                                                             *
 *  M. FERRABONE(1,11), M. DE LA PIERRE(1,11), M. FERRERO(1,11),               *
 *  J. BAIMA(1,11), E. ALBANESE(1,11), M.F. PEINTINGER(12), R. BAST(13),       *
 *  B. KIRTMAN(15), V. LACIVITA(1,11), R. DEMICHELIS(1,16)                     *
 *  G. BRANDEBURG(17), S. SALUSTRO(1,11), G. SANSONE(1,11)                     *
 *  M.T. RUGGIERO(18), L.E. DAGA(1), L. DONA'(1), A. COSSARD(1)                *
 *                                                                             *
 * (1) THEORETICAL CHEMISTRY GROUP - UNIVERSITA' DI TORINO - TORINO (ITALY)    *
 * (2) SCIENTIFIC COMPUTING DEPARTMENT - STFC DARESBURY (UK)                   *
 * (3) UNIVERSIDAD AUTONOMA DEL ESTADO DE MORELOS - CUERNAVACA (MEXICO)        *
 * (4) UNIVERSITE' DE LORRAINE - NANCY (FRANCE)                                *
 * (5) UNIVERSITAET STUTTGART- STUTTGART (GERMANY)                             *
 * (6) IMPERIAL COLLEGE - LONDON (UK)                                          *
 * (7) SCIENTIFIC COMPUTING DEPARTMENT - STFC RAL (UK)                         *
 * (8) UPMC - SORBONNE UNIVERSITES - PARIS (FRANCE)                            *
 * (9) UNIVERSIDAD DE BARCELONA - BARCELONA (SPAIN)                            *
 *(10) UNIVERSITA' DI NAPOLI "FEDERICO II" - NAPOLI (ITALY)                    *
 *(11) NIS - NANOSTRUCTURED INTERFACES AND SURFACES - TORINO (ITALY)           *
 *(12) MPI FUER CHEMISCHE ENERGIEKONVERSION - MUELHEIM AN DER RUHR (GERMANY)   *
 *(13) UNIVERSITY OF TROMSO - TROMSO (NORWAY)                                  *
 *(14) UNIVERSITE' DE PAU ET DES PAYS DE L'ADOUR - PAU (FRANCE)                *
 *(15) UNIVERSITY OF CALIFORNIA SANTA BARBARA - SANTA BARBARA (USA)            *
 *(16) CURTIN UNIVERSITY - PERTH (AUSTRALIA)                                   *
 *(17) UNIVERSITY COLLEGE LONDON - LONDON (UK)                                 *
 *(18) UNIVERSITY OF VERMONT - BURLINGTON (USA)                                *
 *                                                                             *
 *******************************************************************************
 EEEEEEEEEE STARTING  DATE 06 08 2025 TIME 17:51:19.0
 INFORMATION **** SET_MPP **** PCRYSTAL CALCULATION

 *******************************************************************************
 TEST12 - UREA BULK BASE 6-21 + POLARIZATION                                     
 CRYSTAL - PROPERTIES - TYPE OF CALCULATION :  RESTRICTED CLOSED SHELL
 *******************************************************************************
 HARTREE-FOCK HAMILTONIAN
 *******************************************************************************
 N. OF ATOMS PER CELL         8 COULOMB OVERLAP TOL          (T1) 10**   -6
 NUMBER OF SHELLS            28 COULOMB PENETRATION TOL      (T2) 10**   -6
 NUMBER OF AO                76 EXCHANGE OVERLAP TOL         (T3) 10**   -6
 N. OF ELECTRONS PER CELL    32 EXCHANGE PSEUDO OVP (F(G))   (T4) 10**   -6
 CORE ELECTRONS PER CELL      8 EXCHANGE PSEUDO OVP (P(G))   (T5) 10**  -12
 N. OF SYMMETRY OPERATORS     4 POLE ORDER IN MONO ZONE                   4
 *******************************************************************************
   ATOM N.AT.  SHELL    X(A)      Y(A)      Z(A)      EXAD       N.ELECT.
 *******************************************************************************
    1    6 C     4     0.000     0.000     0.000   8.000E-01       4.821
    2    8 O     4     0.000     0.000     1.261   8.000E-01       8.735
    3    7 N     4     0.000     1.148    -0.700   8.000E-01       7.716
    4    7 N     4     0.000    -1.148    -0.700   8.000E-01       7.716
    5    1 H     3     0.000     2.027    -0.203   1.100E+00       0.734
    6    1 H     3     0.000    -2.027    -0.203   1.100E+00       0.734
    7    1 H     3     0.000     1.134    -1.705   1.100E+00       0.772
    8    1 H     3     0.000    -1.134    -1.705   1.100E+00       0.772
 *******************************************************************************
 DE(K)                   0.000E+00  ENERGY LEVEL SHIFTING        0.00000
 TOTAL ENERGY -2.2378754820639E+02  CONVERGENCE ON ENER       -1.380E-08
 KIN. ENERGY   2.2350030204573E+02  VIR. COEFF.           9.99357805E-01
 N. OF SCF CYCLES               10  FERMI ENERGY              -0.367E+00
 WEIGHT OF F(I) IN F(I+1)      30
 *******************************************************************************
 TTTTTTTTTTTTTTTTTTTTTTTTTTTTTT gordsh1     TELAPSE        0.07 TCPU        0.03

 MATRIX SIZE: P(G)    5716, F(G)    2651, P(G) IRR    1758, F(G) IRR    1635
 MAX G-VECTOR INDEX FOR 1- AND 2-ELECTRON INTEGRALS   1


 CAPPA:IS1  1;IS2  1;IS3  1; K PTS MONK NET   1; SYMMOPS:K SPACE   8;G SPACE   4

 *******************************************************************************
 *                                                                             *
 *                              T O P O N D  2 0 2 1                                                                *
 *                                                                             *
 *           AN ELECTRON DENSITY TOPOLOGICAL ANALYSIS PROGRAM FOR              *
 *                 SYSTEMS PERIODIC IN N (N=0-3) DIMENSIONS                    *
 *                                                                             *
 *               USER MANUAL BY CARLO GATTI AND SILVIA CASASSA                 *
 *                                                                             *
 *            CNR-ISTM, ISTITUTO DI SCIENZE E TECNOLOGIE MOLECOLARI            *
 *                   VIA GOLGI 19  - I-20133 MILANO - ITALIA                   *
 *                     E-MAIL: c.gatti@istm.cnr.it                             *
 *                                                                             *
 *******************************************************************************

  TOPOND PARAMETER 

  LIM016 [INF24]        =       1000
  LIM015 [INF20]        =         28
  LIM035 [LIM016*INF5]  =       1000
  NTOMAX [LIM016*INF5]  =       8009
  INF79  [INF79]        =          8
  MAXGSTAR [INF2*INF5]  =          8

 *******************************************************************************
 *******************************************************************************
 *                                                                             *
 *               TOPOND GENERALISATION TO F AND G ATOMIC ORBITALS              *
 *                                                                             *
 *                     BY ALESSANDRO COSSARD, JACQUES DESMARAIS                *
 *                            AND ALESSANDRO ERBA                              *
 *                                                                             *
 *      PLEASE CITE: A. Cossard, J. K. Desmarais, S.Casassa, C. Gatti and      *
 *            A. Erba, J. Phys. Chem. Lett., 12, 1862-1868 (2021)              *
 *                                                                             *
 *******************************************************************************

CRYSTAL INFORMATION ON THE REFERENCE SYSTEM:

 *******************************************************************************
 N. OF ATOMS PER CELL        8  COULOMB OVERLAP TOL         (T1) 10** -6
 NUMBER OF SHELLS           28  COULOMB PENETRATION TOL     (T2) 10** -6
 NUMBER OF AO               76  EXCHANGE OVERLAP TOL        (T3) 10** -6
 N. OF ELECTRONS PER CELL    32 EXCHANGE PSEUDO OVP (F(G))  (T4) 10** -6
 CORE ELECTRONS PER CELL     8  EXCHANGE PSEUDO OVP (P(G))  (T5) 10**-12
 N. OF SYMMETRY OPERATORS    4  POLE ORDER IN MONO ZONE                4
 *******************************************************************************
  ATOM  SHEL    X(AU)     Y(AU)     Z(AU)
 *******************************************************************************
    6 C    4     0.000     0.000     0.000
    8 O    4     0.000     0.000     2.384
    7 N    4     0.000     2.170    -1.322
    7 N    4     0.000    -2.170    -1.322
    1 H    3     0.000     3.830    -0.383
    1 H    3     0.000    -3.830    -0.383
    1 H    3     0.000     2.143    -3.222
    1 H    3     0.000    -2.143    -3.222
 *******************************************************************************
 DE(K)                  0.000E+00  CONVERGENCE ON EIGENVALUES   10**-17
 WEIGHT OF F(I) IN F(I+1)     30%  CONVERGENCE ON ENERGY        10**- 7
 TOTAL ENERGY     -2.23787548E+02  FERMI ENERGY              -3.672E-01
 KIN. ENERGY       2.23500302E+02  VIR. COEFF.           9.99357805E-01
 *******************************************************************************

 NEIGHBORS OF THE NON-EQUIVALENT ATOMS

 N = NUMBER OF NEIGHBORS AT DISTANCE R
    ATOM  N     R/ANG      R/AU   NEIGHBORS (ATOM LABELS AND CELL INDICES)

   1 C    1     1.2614     2.3837   2 O    0 0 0
   1 C    2     1.3447     2.5411   3 N    0 0 0   4 N    0 0 0
   1 C    2     2.0367     3.8488   5 H    0 0 0   6 H    0 0 0
   1 C    2     2.0477     3.8696   7 H    0 0 0   8 H    0 0 0

   2 O    1     1.2614     2.3837   1 C    0 0 0
   2 O    2     2.2726     4.2946   3 N    0 0 0   4 N    0 0 0
   2 O    2     2.5002     4.7246   5 H    0 0 0   6 H    0 0 0
   2 O    2     3.1758     6.0013   7 H    0 0 0   8 H    0 0 0

   3 N    1     1.0053     1.8997   7 H    0 0 0
   3 N    1     1.0092     1.9070   5 H    0 0 0
   3 N    1     1.3447     2.5411   1 C    0 0 0
   3 N    1     2.2726     4.2946   2 O    0 0 0
   3 N    1     2.2965     4.3397   4 N    0 0 0
   3 N    1     2.4939     4.7127   8 H    0 0 0
   3 N    1     3.2135     6.0726   6 H    0 0 0

   5 H    1     1.0092     1.9070   3 N    0 0 0
   5 H    1     1.7473     3.3019   7 H    0 0 0
   5 H    1     2.0367     3.8488   1 C    0 0 0
   5 H    1     2.5002     4.7246   2 O    0 0 0
   5 H    1     3.2135     6.0726   4 N    0 0 0
   5 H    1     3.4994     6.6130   8 H    0 0 0
   5 H    1     4.0531     7.6592   6 H    0 0 0

   7 H    1     1.0053     1.8997   3 N    0 0 0
   7 H    1     1.7473     3.3019   5 H    0 0 0
   7 H    1     2.0477     3.8696   1 C    0 0 0
   7 H    1     2.2682     4.2862   8 H    0 0 0
   7 H    1     2.4939     4.7127   4 N    0 0 0
   7 H    1     3.1758     6.0013   2 O    0 0 0
   7 H    1     3.4994     6.6130   6 H    0 0 0

 *******************************************************************************
       TOPOLOGICAL ANALYSIS OF -(LAP(RHO)) : ATOMIC CLUSTERS CONSIDERED
 *******************************************************************************
 CLUSTERS AROUND EACH OF THE NON-EQUIVALENT ATOMS

 NON-EQUIV. ATOM       1 C (N.      1), CLUSTER OF      7 ATOMS
 NEW  OLD     AT. NU.         COORD.(AU)             DISTANCE (ANG)
     1       2       8        0.000   0.000   2.384          1.261
     2       3       7        0.000   2.170  -1.322          1.345
     3       4       7        0.000  -2.170  -1.322          1.345
     4       5       1        0.000   3.830  -0.383          2.037
     5       6       1        0.000  -3.830  -0.383          2.037
     6       7       1        0.000   2.143  -3.222          2.048
     7       8       1        0.000  -2.143  -3.222          2.048

 NON-EQUIV. ATOM       2 O (N.      2), CLUSTER OF      7 ATOMS
 NEW  OLD     AT. NU.         COORD.(AU)             DISTANCE (ANG)
     1       1       6        0.000   0.000   0.000          1.261
     2       3       7        0.000   2.170  -1.322          2.273
     3       4       7        0.000  -2.170  -1.322          2.273
     4       5       1        0.000   3.830  -0.383          2.500
     5       6       1        0.000  -3.830  -0.383          2.500
     6       7       1        0.000   2.143  -3.222          3.176
     7       8       1        0.000  -2.143  -3.222          3.176

 NON-EQUIV. ATOM       3 N (N.      3), CLUSTER OF      7 ATOMS
 NEW  OLD     AT. NU.         COORD.(AU)             DISTANCE (ANG)
     1       7       1        0.000   2.143  -3.222          1.005
     2       5       1        0.000   3.830  -0.383          1.009
     3       1       6        0.000   0.000   0.000          1.345
     4       2       8        0.000   0.000   2.384          2.273
     5       4       7        0.000  -2.170  -1.322          2.296
     6       8       1        0.000  -2.143  -3.222          2.494
     7       6       1        0.000  -3.830  -0.383          3.213

 NON-EQUIV. ATOM       4 H (N.      5), CLUSTER OF      7 ATOMS
 NEW  OLD     AT. NU.         COORD.(AU)             DISTANCE (ANG)
     1       3       7        0.000   2.170  -1.322          1.009
     2       7       1        0.000   2.143  -3.222          1.747
     3       1       6        0.000   0.000   0.000          2.037
     4       2       8        0.000   0.000   2.384          2.500
     5       4       7        0.000  -2.170  -1.322          3.213
     6       8       1        0.000  -2.143  -3.222          3.499
     7       6       1        0.000  -3.830  -0.383          4.053

 NON-EQUIV. ATOM       5 H (N.      7), CLUSTER OF      7 ATOMS
 NEW  OLD     AT. NU.         COORD.(AU)             DISTANCE (ANG)
     1       3       7        0.000   2.170  -1.322          1.005
     2       5       1        0.000   3.830  -0.383          1.747
     3       1       6        0.000   0.000   0.000          2.048
     4       8       1        0.000  -2.143  -3.222          2.268
     5       4       7        0.000  -2.170  -1.322          2.494
     6       2       8        0.000   0.000   2.384          3.176
     7       6       1        0.000  -3.830  -0.383          3.499



******************************************************************************

T O P O L O G I C A L  A N A L I S Y S  O F - (L A P L A C I A N  O F   R H O) 

******************************************************************************


 COMPUTATIONAL CONDITIONS :
                           IAUTO                                     :     0
                           ALGORITHM FOR CP SEARCH                   :    NR
                           ATOMIC GRAPH EVALUATION                   :     T
                           MAX.NUM. OF N.R. OR EIG. FOL. STEPS       :    20
                           NEIGHBORS OF EACH NON-EQUIVALENT ATOM     :     7
                           PRINT N.RAPH OR E.FOL. SEARCH             :     F
                           NUMBER OF ANGLE THETA INTERVALS           :    12
                           NUMBER OF ANGLE PHI INTERVALS             :    18


 ****** CP SEARCH FOR NON-EQUIVALENT ATOM      1 C  ******

 SPHERE RADIUS (ANG)            :  4.9743E-01

 CP N.      1   VSCC OF NON-EQUIV. ATOM      1 C 
 *********

 CP TYPE                        :  (3,+1)
 COORD(AU)  (X  Y  Z)           :  1.1966E+00  1.3451E-16 -1.3781E-01
 PROPERTIES (-LAP,GLAP,RHO)     : -1.4406E-01  5.1673E-16  9.2610E-02

 SPECTRAL DECOMP. OF THE HESSIAN OF -LAP(RHO)

 EIGENVALUES (L1 L2 L3)         : -1.0116E+00  3.6569E-01  4.5987E-01
 EIGENVECTORS                   : -9.9777E-01 -6.6687E-02  0.0000E+00
                                  -1.9340E-16  2.9011E-15  1.0000E+00
                                   6.6687E-02 -9.9777E-01  3.0035E-15


 VECTORS FROM NUCLEI TO CP (LENGTHS AND ANGLES MADE WITH PROJ. ONTO YZ,XZ,XY)


 SYM OLD    RX(ANG)    YZ      XZ      XY
 C      1      0.6374   83.43    0.00    6.57
 O      2      1.4770   25.39    0.00   64.61
 N      3      1.4534   25.83   52.19   25.55
 N      4      1.4534   25.83   52.19   25.55
 H      5      2.1271   17.32   72.31    3.50
 H      6      2.1271   17.32   72.31    3.50
 H      7      2.0858   17.67   32.94   51.48
 H      8      2.0858   17.67   32.94   51.48

 CP N.      2   VSCC OF NON-EQUIV. ATOM      1 C 
 *********

 CP TYPE                        :  (3,-1)
 COORD(AU)  (X  Y  Z)           :  9.0231E-01  5.9520E-01  2.0412E-01
 PROPERTIES (-LAP,GLAP,RHO)     : -9.6515E-02  1.3703E-15  1.3433E-01

 SPECTRAL DECOMP. OF THE HESSIAN OF -LAP(RHO)

 EIGENVALUES (L1 L2 L3)         : -4.0186E+00 -4.8080E-01  1.6432E+00
 EIGENVECTORS                   :  7.5118E-01  6.5492E-01  8.2573E-02
                                   6.1878E-01 -6.5507E-01 -4.3359E-01
                                   2.2987E-01 -3.7679E-01  8.9732E-01


 VECTORS FROM NUCLEI TO CP (LENGTHS AND ANGLES MADE WITH PROJ. ONTO YZ,XZ,XY)


 SYM OLD    RX(ANG)    YZ      XZ      XY
 C      1      0.5821   55.11   32.76   10.69
 O      2      1.2874   21.77   14.16   63.62
 N      3      1.2549   22.36   41.61   40.07
 N      4      1.7383   15.94   57.33   27.69
 H      5      1.8039   15.35   71.59    9.92
 H      6      2.4098   11.43   76.32    7.41
 H      7      2.0459   13.50   23.60   62.39
 H      8      2.3695   11.63   37.70   49.92

 **********
 ATTRACTORS OF THE UNIQUE PAIRS OF GRAD(LAP) TRAJ. ORIGINATING AT (3,-1) CP
 **********

 CP N.      3
**********

 ATTRACTOR CP TYPE              :  (3,-3)
 COORD(AU)  (X  Y  Z)           : -2.0632E-13 -1.3023E-16  1.4949E+00
 PROPERTIES (-LAP,GLAP,RHO)     :  1.6699E+00  2.8721E-12  5.7403E-01
 TRAJECTORY LENGTH(ANG)         :  1.0203E+00
 INTEGRATION STEPS              :      43

 CLUSTER OF ATOMS AROUND THE TERMINUS OF THE PATH 
 NEW  OLD   AT. NU.         COORD.(AU)             DISTANCE (ANG)
     1       2       8        0.000   0.000   2.384          0.470
     2       1       6        0.000   0.000   0.000          0.791
     3       4       7        0.000  -2.170  -1.322          1.882
     4       3       7        0.000   2.170  -1.322          1.882


 CP N.      4
**********

 ATTRACTOR CP TYPE              :  (3,-3)
 COORD(AU)  (X  Y  Z)           :  1.4229E-20  1.3265E+00 -8.2972E-01
 PROPERTIES (-LAP,GLAP,RHO)     :  1.6391E+00  1.7094E-15  4.4539E-01
 TRAJECTORY LENGTH(ANG)         :  8.9294E-01
 INTEGRATION STEPS              :      29

 CLUSTER OF ATOMS AROUND THE TERMINUS OF THE PATH 
 NEW  OLD   AT. NU.         COORD.(AU)             DISTANCE (ANG)
     1       3       7        0.000   2.170  -1.322          0.517
     2       1       6        0.000   0.000   0.000          0.828
     3       7       1        0.000   2.143  -3.222          1.338
     4       5       1        0.000   3.830  -0.383          1.346



 TTRAJ (ANG) ; RAB ; (TTRAJ/RAB):  1.9132E+00  1.4163E+00  1.3508E+00

 CP N.      5   VSCC OF NON-EQUIV. ATOM      1 C 
 *********

 CP TYPE                        :  (3,+1)
 COORD(AU)  (X  Y  Z)           :  1.4742E+00  2.3700E-01  8.0809E-02
 PROPERTIES (-LAP,GLAP,RHO)     : -1.4889E-01  8.0647E-12  5.7233E-02

 SPECTRAL DECOMP. OF THE HESSIAN OF -LAP(RHO)

 EIGENVALUES (L1 L2 L3)         : -7.6938E-02  1.3497E-01  7.0129E-01
 EIGENVECTORS                   :  6.0261E-02  2.0857E-01  9.7615E-01
                                   8.5293E-01 -5.1878E-01  5.8192E-02
                                   5.1854E-01  8.2908E-01 -2.0916E-01


 VECTORS FROM NUCLEI TO CP (LENGTHS AND ANGLES MADE WITH PROJ. ONTO YZ,XZ,XY)


 SYM OLD    RX(ANG)    YZ      XZ      XY
 C      1      0.7913   80.36    9.12    3.10
 O      2      1.4524   32.49    4.95   57.04
 N      3      1.4853   31.68   43.52   30.00
 N      4      1.6680   27.88   49.78   26.43
 H      5      2.0696   22.14   66.72    6.81
 H      6      2.3021   19.81   69.19    6.12
 H      7      2.1635   21.14   27.79   53.89
 H      8      2.2912   19.91   33.35   49.71

 CP N.      6   VSCC OF NON-EQUIV. ATOM      1 C 
 *********

 CP TYPE                        :  (3,-1)
 COORD(AU)  (X  Y  Z)           :  1.4614E+00  5.0691E-01 -3.6306E-01
 PROPERTIES (-LAP,GLAP,RHO)     : -1.3983E-01  1.9979E-16  5.7464E-02

 SPECTRAL DECOMP. OF THE HESSIAN OF -LAP(RHO)

 EIGENVALUES (L1 L2 L3)         : -2.2678E-01 -1.3947E-01  8.1775E-01
 EIGENVECTORS                   :  8.5504E-02  3.4986E-02  9.9572E-01
                                  -8.3415E-01  5.4906E-01  5.2337E-02
                                   5.4488E-01  8.3505E-01 -7.6130E-02


 VECTORS FROM NUCLEI TO CP (LENGTHS AND ANGLES MADE WITH PROJ. ONTO YZ,XZ,XY)


 SYM OLD    RX(ANG)    YZ      XZ      XY
 C      1      0.8408   66.89   18.60   13.21
 O      2      1.6682   27.62    9.25   60.61
 N      3      1.2768   37.28   43.57   23.43
 N      4      1.6918   27.20   56.85   17.46
 H      5      1.9209   23.74   66.26    0.32
 H      6      2.4216   18.62   71.37    0.25
 H      7      1.9069   23.93   27.00   52.50
 H      8      2.2030   20.55   39.53   43.37

 **********
 ATTRACTORS OF THE UNIQUE PAIRS OF GRAD(LAP) TRAJ. ORIGINATING AT (3,-1) CP
 **********


 MAX. NUMBER OF STEP EXCEEDED IN THE PATH ATTRACTOR SEARCH; NSTEP= 200
 ATTRACTOR CP TYPE              :  (3,-3)
 COORD(AU)  (X  Y  Z)           : -3.6652E-23  1.3265E+00 -8.2972E-01
 PROPERTIES (-LAP,GLAP,RHO)     :  1.6391E+00  3.8669E-15  4.4539E-01
 TRAJECTORY LENGTH(ANG)         :  1.0185E+00
 INTEGRATION STEPS              :      30

 CLUSTER OF ATOMS AROUND THE TERMINUS OF THE PATH 
 NEW  OLD   AT. NU.         COORD.(AU)             DISTANCE (ANG)
     1       3       7        0.000   2.170  -1.322          0.517
     2       1       6        0.000   0.000   0.000          0.828
     3       7       1        0.000   2.143  -3.222          1.338
     4       5       1        0.000   3.830  -0.383          1.346



 TTRAJ (ANG) ; RAB ; (TTRAJ/RAB):  1.0185E+00  8.2795E-01  1.2302E+00

 CP N.      7   VSCC OF NON-EQUIV. ATOM      1 C 
 *********

 CP TYPE                        :  (3,-1)
 COORD(AU)  (X  Y  Z)           :  8.7525E-01  9.8966E-17 -7.0991E-01
 PROPERTIES (-LAP,GLAP,RHO)     : -1.1997E-01  9.1469E-16  1.2789E-01

 SPECTRAL DECOMP. OF THE HESSIAN OF -LAP(RHO)

 EIGENVALUES (L1 L2 L3)         : -3.1497E+00 -2.8804E-01  1.3679E+00
 EIGENVECTORS                   : -6.7544E-01  7.3742E-01  0.0000E+00
                                  -2.7396E-16 -3.4270E-16  1.0000E+00
                                   7.3742E-01  6.7544E-01  4.9132E-16


 VECTORS FROM NUCLEI TO CP (LENGTHS AND ANGLES MADE WITH PROJ. ONTO YZ,XZ,XY)


 SYM OLD    RX(ANG)    YZ      XZ      XY
 C      1      0.5964   50.95    0.00   39.05
 O      2      1.7013   15.80    0.00   74.20
 N      3      1.2799   21.22   63.79   14.67
 N      4      1.2799   21.22   63.79   14.67
 H      5      2.0860   12.83   76.29    4.75
 H      6      2.0860   12.83   76.29    4.75
 H      7      1.8077   14.85   38.86   47.34
 H      8      1.8077   14.85   38.86   47.34

 **********
 ATTRACTORS OF THE UNIQUE PAIRS OF GRAD(LAP) TRAJ. ORIGINATING AT (3,-1) CP
 **********

 ATTRACTOR CP TYPE              :  (3,-3)
 COORD(AU)  (X  Y  Z)           : -2.2682E-12  1.3265E+00 -8.2972E-01
 PROPERTIES (-LAP,GLAP,RHO)     :  1.6391E+00  6.8644E-11  4.4539E-01
 TRAJECTORY LENGTH(ANG)         :  9.1697E-01
 INTEGRATION STEPS              :      28

 CLUSTER OF ATOMS AROUND THE TERMINUS OF THE PATH 
 NEW  OLD   AT. NU.         COORD.(AU)             DISTANCE (ANG)
     1       3       7        0.000   2.170  -1.322          0.517
     2       1       6        0.000   0.000   0.000          0.828
     3       7       1        0.000   2.143  -3.222          1.338
     4       5       1        0.000   3.830  -0.383          1.346


 CP N.      8
**********

 ATTRACTOR CP TYPE              :  (3,-3)
 COORD(AU)  (X  Y  Z)           : -2.2682E-12 -1.3265E+00 -8.2972E-01
 PROPERTIES (-LAP,GLAP,RHO)     :  1.6391E+00  6.8642E-11  4.4539E-01
 TRAJECTORY LENGTH(ANG)         :  9.1697E-01
 INTEGRATION STEPS              :      28

 CLUSTER OF ATOMS AROUND THE TERMINUS OF THE PATH 
 NEW  OLD   AT. NU.         COORD.(AU)             DISTANCE (ANG)
     1       4       7        0.000  -2.170  -1.322          0.517
     2       1       6        0.000   0.000   0.000          0.828
     3       8       1        0.000  -2.143  -3.222          1.338
     4       6       1        0.000  -3.830  -0.383          1.346



 TTRAJ (ANG) ; RAB ; (TTRAJ/RAB):  1.8339E+00  1.4039E+00  1.3063E+00

 CP N.      9   VSCC OF NON-EQUIV. ATOM      1 C 
 *********

 CP TYPE                        :  (3,+1)
 COORD(AU)  (X  Y  Z)           :  4.4716E-11 -8.6771E-12 -1.0455E+00
 PROPERTIES (-LAP,GLAP,RHO)     : -1.9256E-01  5.8927E-11  1.7747E-01

 SPECTRAL DECOMP. OF THE HESSIAN OF -LAP(RHO)

 EIGENVALUES (L1 L2 L3)         : -5.7876E+00  4.4140E-01  3.0343E+00
 EIGENVECTORS                   :  0.0000E+00  1.0000E+00  0.0000E+00
                                  -3.5298E-11  0.0000E+00 -1.0000E+00
                                  -1.0000E+00  0.0000E+00  3.5298E-11


 VECTORS FROM NUCLEI TO CP (LENGTHS AND ANGLES MADE WITH PROJ. ONTO YZ,XZ,XY)


 SYM OLD    RX(ANG)    YZ      XZ      XY
 C      1      0.5533    0.00    0.00   90.00
 O      2      1.8147    0.00    0.00   90.00
 N      3      1.1576    0.00   82.73    7.27
 N      4      1.1576    0.00   82.73    7.27
 H      5      2.0566    0.00   80.19    9.81
 H      6      2.0566    0.00   80.19    9.81
 H      7      1.6164    0.00   44.56   45.44
 H      8      1.6164    0.00   44.56   45.44

 CP N.     10   VSCC OF NON-EQUIV. ATOM      1 C 
 *********

 CP TYPE                        :  (3,+1)
 COORD(AU)  (X  Y  Z)           : -2.9456E-15  9.6405E-01  4.4381E-01
 PROPERTIES (-LAP,GLAP,RHO)     : -2.3350E-01  8.3842E-15  1.7226E-01

 SPECTRAL DECOMP. OF THE HESSIAN OF -LAP(RHO)

 EIGENVALUES (L1 L2 L3)         : -5.1475E+00  7.0250E-01  2.5674E+00
 EIGENVECTORS                   :  9.2802E-15 -1.0000E+00 -7.8154E-16
                                   9.3351E-01  8.9434E-15 -3.5855E-01
                                   3.5855E-01  2.5978E-15  9.3351E-01


 VECTORS FROM NUCLEI TO CP (LENGTHS AND ANGLES MADE WITH PROJ. ONTO YZ,XZ,XY)


 SYM OLD    RX(ANG)    YZ      XZ      XY
 C      1      0.5616    0.00   65.28   24.72
 O      2      1.1463    0.00   26.43   63.57
 N      3      1.1317    0.00   34.32   55.68
 N      4      1.9036    0.00   60.60   29.40
 H      5      1.5783    0.00   73.90   16.10
 H      6      2.5742    0.00   80.21    9.79
 H      7      2.0377    0.00   17.83   72.17
 H      8      2.5429    0.00   40.29   49.71

 CP N.     11   VSCC OF NON-EQUIV. ATOM      1 C 
 *********

 CP TYPE                        :  (3,+3)
 COORD(AU)  (X  Y  Z)           :  1.4345E+00  2.0911E-14 -8.3051E-02
 PROPERTIES (-LAP,GLAP,RHO)     : -1.5013E-01  5.2949E-15  6.1277E-02

 SPECTRAL DECOMP. OF THE HESSIAN OF -LAP(RHO)

 EIGENVALUES (L1 L2 L3)         :  7.8107E-02  1.0089E-01  5.1376E-01
 EIGENVECTORS                   : -2.1495E-01  0.0000E+00  9.7663E-01
                                  -1.0958E-13 -1.0000E+00 -2.4125E-14
                                  -9.7663E-01  1.1228E-13 -2.1495E-01


 VECTORS FROM NUCLEI TO CP (LENGTHS AND ANGLES MADE WITH PROJ. ONTO YZ,XZ,XY)


 SYM OLD    RX(ANG)    YZ      XZ      XY
 C      1      0.7604   86.69    0.00    3.31
 O      2      1.5100   30.18    0.00   59.82
 N      3      1.5247   29.86   48.86   25.48
 N      4      1.5247   29.86   48.86   25.48
 H      5      2.1699   20.48   69.06    4.20
 H      6      2.1699   20.48   69.06    4.20
 H      7      2.1497   20.68   31.84   50.59
 H      8      2.1497   20.68   31.84   50.59

 CP N.     12   VSCC OF NON-EQUIV. ATOM      1 C 
 *********

 CP TYPE                        :  (3,+1)
 COORD(AU)  (X  Y  Z)           : -1.1966E+00  5.2120E-14 -1.3781E-01
 PROPERTIES (-LAP,GLAP,RHO)     : -1.4406E-01  8.6156E-12  9.2610E-02

 SPECTRAL DECOMP. OF THE HESSIAN OF -LAP(RHO)

 EIGENVALUES (L1 L2 L3)         : -1.0116E+00  3.6569E-01  4.5987E-01
 EIGENVECTORS                   : -9.9777E-01  6.6687E-02  0.0000E+00
                                   1.0880E-13  1.6279E-12  1.0000E+00
                                  -6.6687E-02 -9.9777E-01  1.6315E-12


 VECTORS FROM NUCLEI TO CP (LENGTHS AND ANGLES MADE WITH PROJ. ONTO YZ,XZ,XY)


 SYM OLD    RX(ANG)    YZ      XZ      XY
 C      1      0.6374   83.43    0.00    6.57
 O      2      1.4770   25.39    0.00   64.61
 N      3      1.4534   25.83   52.19   25.55
 N      4      1.4534   25.83   52.19   25.55
 H      5      2.1271   17.32   72.31    3.50
 H      6      2.1271   17.32   72.31    3.50
 H      7      2.0858   17.67   32.94   51.48
 H      8      2.0858   17.67   32.94   51.48

 CP N.     13   VSCC OF NON-EQUIV. ATOM      1 C 
 *********

 CP TYPE                        :  (3,+3)
 COORD(AU)  (X  Y  Z)           : -1.4345E+00  2.0635E-14 -8.3051E-02
 PROPERTIES (-LAP,GLAP,RHO)     : -1.5013E-01  5.2593E-15  6.1277E-02

 SPECTRAL DECOMP. OF THE HESSIAN OF -LAP(RHO)

 EIGENVALUES (L1 L2 L3)         :  7.8107E-02  1.0089E-01  5.1376E-01
 EIGENVECTORS                   :  2.1495E-01  0.0000E+00  9.7663E-01
                                  -1.0863E-13 -1.0000E+00  2.3930E-14
                                  -9.7663E-01  1.1134E-13  2.1495E-01


 VECTORS FROM NUCLEI TO CP (LENGTHS AND ANGLES MADE WITH PROJ. ONTO YZ,XZ,XY)


 SYM OLD    RX(ANG)    YZ      XZ      XY
 C      1      0.7604   86.69    0.00    3.31
 O      2      1.5100   30.18    0.00   59.82
 N      3      1.5247   29.86   48.86   25.48
 N      4      1.5247   29.86   48.86   25.48
 H      5      2.1699   20.48   69.06    4.20
 H      6      2.1699   20.48   69.06    4.20
 H      7      2.1497   20.68   31.84   50.59
 H      8      2.1497   20.68   31.84   50.59

 CP N.     14   VSCC OF NON-EQUIV. ATOM      1 C 
 *********

 CP TYPE                        :  (3,-1)
 COORD(AU)  (X  Y  Z)           : -8.7525E-01 -2.4641E-16 -7.0991E-01
 PROPERTIES (-LAP,GLAP,RHO)     : -1.1997E-01  2.0567E-15  1.2789E-01

 SPECTRAL DECOMP. OF THE HESSIAN OF -LAP(RHO)

 EIGENVALUES (L1 L2 L3)         : -3.1497E+00 -2.8804E-01  1.3679E+00
 EIGENVECTORS                   : -6.7544E-01  7.3742E-01  0.0000E+00
                                  -6.3873E-16 -4.8127E-16 -1.0000E+00
                                  -7.3742E-01 -6.7544E-01  8.0534E-16


 VECTORS FROM NUCLEI TO CP (LENGTHS AND ANGLES MADE WITH PROJ. ONTO YZ,XZ,XY)


 SYM OLD    RX(ANG)    YZ      XZ      XY
 C      1      0.5964   50.95    0.00   39.05
 O      2      1.7013   15.80    0.00   74.20
 N      3      1.2799   21.22   63.79   14.67
 N      4      1.2799   21.22   63.79   14.67
 H      5      2.0860   12.83   76.29    4.75
 H      6      2.0860   12.83   76.29    4.75
 H      7      1.8077   14.85   38.86   47.34
 H      8      1.8077   14.85   38.86   47.34

 **********
 ATTRACTORS OF THE UNIQUE PAIRS OF GRAD(LAP) TRAJ. ORIGINATING AT (3,-1) CP
 **********

 ATTRACTOR CP TYPE              :  (3,-3)
 COORD(AU)  (X  Y  Z)           :  2.2682E-12 -1.3265E+00 -8.2972E-01
 PROPERTIES (-LAP,GLAP,RHO)     :  1.6391E+00  6.8642E-11  4.4539E-01
 TRAJECTORY LENGTH(ANG)         :  9.1697E-01
 INTEGRATION STEPS              :      28

 CLUSTER OF ATOMS AROUND THE TERMINUS OF THE PATH 
 NEW  OLD   AT. NU.         COORD.(AU)             DISTANCE (ANG)
     1       4       7        0.000  -2.170  -1.322          0.517
     2       1       6        0.000   0.000   0.000          0.828
     3       8       1        0.000  -2.143  -3.222          1.338
     4       6       1        0.000  -3.830  -0.383          1.346


 ATTRACTOR CP TYPE              :  (3,-3)
 COORD(AU)  (X  Y  Z)           :  2.2682E-12  1.3265E+00 -8.2972E-01
 PROPERTIES (-LAP,GLAP,RHO)     :  1.6391E+00  6.8644E-11  4.4539E-01
 TRAJECTORY LENGTH(ANG)         :  9.1697E-01
 INTEGRATION STEPS              :      28

 CLUSTER OF ATOMS AROUND THE TERMINUS OF THE PATH 
 NEW  OLD   AT. NU.         COORD.(AU)             DISTANCE (ANG)
     1       3       7        0.000   2.170  -1.322          0.517
     2       1       6        0.000   0.000   0.000          0.828
     3       7       1        0.000   2.143  -3.222          1.338
     4       5       1        0.000   3.830  -0.383          1.346



 TTRAJ (ANG) ; RAB ; (TTRAJ/RAB):  1.8339E+00  1.4039E+00  1.3063E+00

 CP N.     15   VSCC OF NON-EQUIV. ATOM      1 C 
 *********

 CP TYPE                        :  (3,-1)
 COORD(AU)  (X  Y  Z)           : -9.0231E-01  5.9520E-01  2.0412E-01
 PROPERTIES (-LAP,GLAP,RHO)     : -9.6515E-02  9.2971E-16  1.3433E-01

 SPECTRAL DECOMP. OF THE HESSIAN OF -LAP(RHO)

 EIGENVALUES (L1 L2 L3)         : -4.0186E+00 -4.8080E-01  1.6432E+00
 EIGENVECTORS                   :  7.5118E-01 -6.5492E-01 -8.2573E-02
                                  -6.1878E-01 -6.5507E-01 -4.3359E-01
                                  -2.2987E-01 -3.7679E-01  8.9732E-01


 VECTORS FROM NUCLEI TO CP (LENGTHS AND ANGLES MADE WITH PROJ. ONTO YZ,XZ,XY)


 SYM OLD    RX(ANG)    YZ      XZ      XY
 C      1      0.5821   55.11   32.76   10.69
 O      2      1.2874   21.77   14.16   63.62
 N      3      1.2549   22.36   41.61   40.07
 N      4      1.7383   15.94   57.33   27.69
 H      5      1.8039   15.35   71.59    9.92
 H      6      2.4098   11.43   76.32    7.41
 H      7      2.0459   13.50   23.60   62.39
 H      8      2.3695   11.63   37.70   49.92

 **********
 ATTRACTORS OF THE UNIQUE PAIRS OF GRAD(LAP) TRAJ. ORIGINATING AT (3,-1) CP
 **********

 ATTRACTOR CP TYPE              :  (3,-3)
 COORD(AU)  (X  Y  Z)           :  2.0632E-13 -1.2288E-16  1.4949E+00
 PROPERTIES (-LAP,GLAP,RHO)     :  1.6699E+00  2.8721E-12  5.7403E-01
 TRAJECTORY LENGTH(ANG)         :  1.0203E+00
 INTEGRATION STEPS              :      43

 CLUSTER OF ATOMS AROUND THE TERMINUS OF THE PATH 
 NEW  OLD   AT. NU.         COORD.(AU)             DISTANCE (ANG)
     1       2       8        0.000   0.000   2.384          0.470
     2       1       6        0.000   0.000   0.000          0.791
     3       4       7        0.000  -2.170  -1.322          1.882
     4       3       7        0.000   2.170  -1.322          1.882


 ATTRACTOR CP TYPE              :  (3,-3)
 COORD(AU)  (X  Y  Z)           : -1.4229E-20  1.3265E+00 -8.2972E-01
 PROPERTIES (-LAP,GLAP,RHO)     :  1.6391E+00  3.5635E-15  4.4539E-01
 TRAJECTORY LENGTH(ANG)         :  8.9294E-01
 INTEGRATION STEPS              :      29

 CLUSTER OF ATOMS AROUND THE TERMINUS OF THE PATH 
 NEW  OLD   AT. NU.         COORD.(AU)             DISTANCE (ANG)
     1       3       7        0.000   2.170  -1.322          0.517
     2       1       6        0.000   0.000   0.000          0.828
     3       7       1        0.000   2.143  -3.222          1.338
     4       5       1        0.000   3.830  -0.383          1.346



 TTRAJ (ANG) ; RAB ; (TTRAJ/RAB):  1.9132E+00  1.4163E+00  1.3508E+00

 CP N.     16   VSCC OF NON-EQUIV. ATOM      1 C 
 *********

 CP TYPE                        :  (3,+1)
 COORD(AU)  (X  Y  Z)           : -1.4742E+00  2.3700E-01  8.0809E-02
 PROPERTIES (-LAP,GLAP,RHO)     : -1.4889E-01  8.0651E-12  5.7233E-02

 SPECTRAL DECOMP. OF THE HESSIAN OF -LAP(RHO)

 EIGENVALUES (L1 L2 L3)         : -7.6938E-02  1.3497E-01  7.0129E-01
 EIGENVECTORS                   : -6.0261E-02 -2.0857E-01  9.7615E-01
                                   8.5293E-01 -5.1878E-01 -5.8192E-02
                                   5.1854E-01  8.2908E-01  2.0916E-01


 VECTORS FROM NUCLEI TO CP (LENGTHS AND ANGLES MADE WITH PROJ. ONTO YZ,XZ,XY)


 SYM OLD    RX(ANG)    YZ      XZ      XY
 C      1      0.7913   80.36    9.12    3.10
 O      2      1.4524   32.49    4.95   57.04
 N      3      1.4853   31.68   43.52   30.00
 N      4      1.6680   27.88   49.78   26.43
 H      5      2.0696   22.14   66.72    6.81
 H      6      2.3021   19.81   69.19    6.12
 H      7      2.1635   21.14   27.79   53.89
 H      8      2.2912   19.91   33.35   49.71

 CP N.     17   VSCC OF NON-EQUIV. ATOM      1 C 
 *********

 CP TYPE                        :  (3,-1)
 COORD(AU)  (X  Y  Z)           : -1.4614E+00  5.0691E-01 -3.6306E-01
 PROPERTIES (-LAP,GLAP,RHO)     : -1.3983E-01  2.1989E-16  5.7464E-02

 SPECTRAL DECOMP. OF THE HESSIAN OF -LAP(RHO)

 EIGENVALUES (L1 L2 L3)         : -2.2678E-01 -1.3947E-01  8.1775E-01
 EIGENVECTORS                   : -8.5504E-02 -3.4986E-02  9.9572E-01
                                  -8.3415E-01  5.4906E-01 -5.2337E-02
                                   5.4488E-01  8.3505E-01  7.6130E-02


 VECTORS FROM NUCLEI TO CP (LENGTHS AND ANGLES MADE WITH PROJ. ONTO YZ,XZ,XY)


 SYM OLD    RX(ANG)    YZ      XZ      XY
 C      1      0.8408   66.89   18.60   13.21
 O      2      1.6682   27.62    9.25   60.61
 N      3      1.2768   37.28   43.57   23.43
 N      4      1.6918   27.20   56.85   17.46
 H      5      1.9209   23.74   66.26    0.32
 H      6      2.4216   18.62   71.37    0.25
 H      7      1.9069   23.93   27.00   52.50
 H      8      2.2030   20.55   39.53   43.37

 **********
 ATTRACTORS OF THE UNIQUE PAIRS OF GRAD(LAP) TRAJ. ORIGINATING AT (3,-1) CP
 **********

 ATTRACTOR CP TYPE              :  (3,-3)
 COORD(AU)  (X  Y  Z)           :  3.6653E-23  1.3265E+00 -8.2972E-01
 PROPERTIES (-LAP,GLAP,RHO)     :  1.6391E+00  1.5140E-15  4.4539E-01
 TRAJECTORY LENGTH(ANG)         :  1.0185E+00
 INTEGRATION STEPS              :      30

 CLUSTER OF ATOMS AROUND THE TERMINUS OF THE PATH 
 NEW  OLD   AT. NU.         COORD.(AU)             DISTANCE (ANG)
     1       3       7        0.000   2.170  -1.322          0.517
     2       1       6        0.000   0.000   0.000          0.828
     3       7       1        0.000   2.143  -3.222          1.338
     4       5       1        0.000   3.830  -0.383          1.346



 MAX. NUMBER OF STEP EXCEEDED IN THE PATH ATTRACTOR SEARCH; NSTEP= 200

 CP N.     18   VSCC OF NON-EQUIV. ATOM      1 C 
 *********

 CP TYPE                        :  (3,-1)
 COORD(AU)  (X  Y  Z)           : -9.0231E-01 -5.9520E-01  2.0412E-01
 PROPERTIES (-LAP,GLAP,RHO)     : -9.6515E-02  8.4176E-16  1.3433E-01

 SPECTRAL DECOMP. OF THE HESSIAN OF -LAP(RHO)

 EIGENVALUES (L1 L2 L3)         : -4.0186E+00 -4.8080E-01  1.6432E+00
 EIGENVECTORS                   :  7.5118E-01  6.5492E-01 -8.2573E-02
                                   6.1878E-01 -6.5507E-01  4.3359E-01
                                  -2.2987E-01  3.7679E-01  8.9732E-01


 VECTORS FROM NUCLEI TO CP (LENGTHS AND ANGLES MADE WITH PROJ. ONTO YZ,XZ,XY)


 SYM OLD    RX(ANG)    YZ      XZ      XY
 C      1      0.5821   55.11   32.76   10.69
 O      2      1.2874   21.77   14.16   63.62
 N      3      1.7383   15.94   57.33   27.69
 N      4      1.2549   22.36   41.61   40.07
 H      5      2.4098   11.43   76.32    7.41
 H      6      1.8039   15.35   71.59    9.92
 H      7      2.3695   11.63   37.70   49.92
 H      8      2.0459   13.50   23.60   62.39

 **********
 ATTRACTORS OF THE UNIQUE PAIRS OF GRAD(LAP) TRAJ. ORIGINATING AT (3,-1) CP
 **********

 ATTRACTOR CP TYPE              :  (3,-3)
 COORD(AU)  (X  Y  Z)           :  2.0633E-13  1.2471E-16  1.4949E+00
 PROPERTIES (-LAP,GLAP,RHO)     :  1.6699E+00  2.8651E-12  5.7403E-01
 TRAJECTORY LENGTH(ANG)         :  1.0203E+00
 INTEGRATION STEPS              :      43

 CLUSTER OF ATOMS AROUND THE TERMINUS OF THE PATH 
 NEW  OLD   AT. NU.         COORD.(AU)             DISTANCE (ANG)
     1       2       8        0.000   0.000   2.384          0.470
     2       1       6        0.000   0.000   0.000          0.791
     3       4       7        0.000  -2.170  -1.322          1.882
     4       3       7        0.000   2.170  -1.322          1.882


 ATTRACTOR CP TYPE              :  (3,-3)
 COORD(AU)  (X  Y  Z)           : -1.4229E-20 -1.3265E+00 -8.2972E-01
 PROPERTIES (-LAP,GLAP,RHO)     :  1.6391E+00  3.2630E-15  4.4539E-01
 TRAJECTORY LENGTH(ANG)         :  8.9294E-01
 INTEGRATION STEPS              :      29

 CLUSTER OF ATOMS AROUND THE TERMINUS OF THE PATH 
 NEW  OLD   AT. NU.         COORD.(AU)             DISTANCE (ANG)
     1       4       7        0.000  -2.170  -1.322          0.517
     2       1       6        0.000   0.000   0.000          0.828
     3       8       1        0.000  -2.143  -3.222          1.338
     4       6       1        0.000  -3.830  -0.383          1.346



 TTRAJ (ANG) ; RAB ; (TTRAJ/RAB):  1.9132E+00  1.4163E+00  1.3508E+00

 CP N.     19   VSCC OF NON-EQUIV. ATOM      1 C 
 *********

 CP TYPE                        :  (3,+1)
 COORD(AU)  (X  Y  Z)           : -1.4742E+00 -2.3700E-01  8.0809E-02
 PROPERTIES (-LAP,GLAP,RHO)     : -1.4889E-01  8.0647E-12  5.7233E-02

 SPECTRAL DECOMP. OF THE HESSIAN OF -LAP(RHO)

 EIGENVALUES (L1 L2 L3)         : -7.6938E-02  1.3497E-01  7.0129E-01
 EIGENVECTORS                   : -6.0261E-02  2.0857E-01  9.7615E-01
                                  -8.5293E-01 -5.1878E-01  5.8192E-02
                                   5.1854E-01 -8.2908E-01  2.0916E-01


 VECTORS FROM NUCLEI TO CP (LENGTHS AND ANGLES MADE WITH PROJ. ONTO YZ,XZ,XY)


 SYM OLD    RX(ANG)    YZ      XZ      XY
 C      1      0.7913   80.36    9.12    3.10
 O      2      1.4524   32.49    4.95   57.04
 N      3      1.6680   27.88   49.78   26.43
 N      4      1.4853   31.68   43.52   30.00
 H      5      2.3021   19.81   69.19    6.12
 H      6      2.0696   22.14   66.72    6.81
 H      7      2.2912   19.91   33.35   49.71
 H      8      2.1635   21.14   27.79   53.89

 CP N.     20   VSCC OF NON-EQUIV. ATOM      1 C 
 *********

 CP TYPE                        :  (3,-1)
 COORD(AU)  (X  Y  Z)           : -1.4614E+00 -5.0691E-01 -3.6306E-01
 PROPERTIES (-LAP,GLAP,RHO)     : -1.3983E-01  1.9873E-16  5.7464E-02

 SPECTRAL DECOMP. OF THE HESSIAN OF -LAP(RHO)

 EIGENVALUES (L1 L2 L3)         : -2.2678E-01 -1.3947E-01  8.1775E-01
 EIGENVECTORS                   :  8.5504E-02 -3.4986E-02  9.9572E-01
                                  -8.3415E-01 -5.4906E-01  5.2337E-02
                                  -5.4488E-01  8.3505E-01  7.6130E-02


 VECTORS FROM NUCLEI TO CP (LENGTHS AND ANGLES MADE WITH PROJ. ONTO YZ,XZ,XY)


 SYM OLD    RX(ANG)    YZ      XZ      XY
 C      1      0.8408   66.89   18.60   13.21
 O      2      1.6682   27.62    9.25   60.61
 N      3      1.6918   27.20   56.85   17.46
 N      4      1.2768   37.28   43.57   23.43
 H      5      2.4216   18.62   71.37    0.25
 H      6      1.9209   23.74   66.26    0.32
 H      7      2.2030   20.55   39.53   43.37
 H      8      1.9069   23.93   27.00   52.50

 **********
 ATTRACTORS OF THE UNIQUE PAIRS OF GRAD(LAP) TRAJ. ORIGINATING AT (3,-1) CP
 **********

 ATTRACTOR CP TYPE              :  (3,-3)
 COORD(AU)  (X  Y  Z)           :  3.6653E-23 -1.3265E+00 -8.2972E-01
 PROPERTIES (-LAP,GLAP,RHO)     :  1.6391E+00  1.4882E-15  4.4539E-01
 TRAJECTORY LENGTH(ANG)         :  1.0185E+00
 INTEGRATION STEPS              :      30

 CLUSTER OF ATOMS AROUND THE TERMINUS OF THE PATH 
 NEW  OLD   AT. NU.         COORD.(AU)             DISTANCE (ANG)
     1       4       7        0.000  -2.170  -1.322          0.517
     2       1       6        0.000   0.000   0.000          0.828
     3       8       1        0.000  -2.143  -3.222          1.338
     4       6       1        0.000  -3.830  -0.383          1.346



 MAX. NUMBER OF STEP EXCEEDED IN THE PATH ATTRACTOR SEARCH; NSTEP= 200

 CP N.     21   VSCC OF NON-EQUIV. ATOM      1 C 
 *********

 CP TYPE                        :  (3,+1)
 COORD(AU)  (X  Y  Z)           :  2.9456E-15 -9.6405E-01  4.4381E-01
 PROPERTIES (-LAP,GLAP,RHO)     : -2.3350E-01  8.4889E-15  1.7226E-01

 SPECTRAL DECOMP. OF THE HESSIAN OF -LAP(RHO)

 EIGENVALUES (L1 L2 L3)         : -5.1475E+00  7.0250E-01  2.5674E+00
 EIGENVECTORS                   :  9.2802E-15 -1.0000E+00  7.8154E-16
                                   9.3351E-01  8.9434E-15  3.5855E-01
                                  -3.5855E-01 -2.5978E-15  9.3351E-01


 VECTORS FROM NUCLEI TO CP (LENGTHS AND ANGLES MADE WITH PROJ. ONTO YZ,XZ,XY)


 SYM OLD    RX(ANG)    YZ      XZ      XY
 C      1      0.5616    0.00   65.28   24.72
 O      2      1.1463    0.00   26.43   63.57
 N      3      1.9036    0.00   60.60   29.40
 N      4      1.1317    0.00   34.32   55.68
 H      5      2.5742    0.00   80.21    9.79
 H      6      1.5783    0.00   73.90   16.10
 H      7      2.5429    0.00   40.29   49.71
 H      8      2.0377    0.00   17.83   72.17

 CP N.     22   VSCC OF NON-EQUIV. ATOM      1 C 
 *********

 CP TYPE                        :  (3,-1)
 COORD(AU)  (X  Y  Z)           :  9.0231E-01 -5.9520E-01  2.0412E-01
 PROPERTIES (-LAP,GLAP,RHO)     : -9.6515E-02  9.4889E-16  1.3433E-01

 SPECTRAL DECOMP. OF THE HESSIAN OF -LAP(RHO)

 EIGENVALUES (L1 L2 L3)         : -4.0186E+00 -4.8080E-01  1.6432E+00
 EIGENVECTORS                   :  7.5118E-01 -6.5492E-01  8.2573E-02
                                  -6.1878E-01 -6.5507E-01  4.3359E-01
                                   2.2987E-01  3.7679E-01  8.9732E-01


 VECTORS FROM NUCLEI TO CP (LENGTHS AND ANGLES MADE WITH PROJ. ONTO YZ,XZ,XY)


 SYM OLD    RX(ANG)    YZ      XZ      XY
 C      1      0.5821   55.11   32.76   10.69
 O      2      1.2874   21.77   14.16   63.62
 N      3      1.7383   15.94   57.33   27.69
 N      4      1.2549   22.36   41.61   40.07
 H      5      2.4098   11.43   76.32    7.41
 H      6      1.8039   15.35   71.59    9.92
 H      7      2.3695   11.63   37.70   49.92
 H      8      2.0459   13.50   23.60   62.39

 **********
 ATTRACTORS OF THE UNIQUE PAIRS OF GRAD(LAP) TRAJ. ORIGINATING AT (3,-1) CP
 **********

 ATTRACTOR CP TYPE              :  (3,-3)
 COORD(AU)  (X  Y  Z)           : -2.0632E-13  1.2185E-16  1.4949E+00
 PROPERTIES (-LAP,GLAP,RHO)     :  1.6699E+00  2.8721E-12  5.7403E-01
 TRAJECTORY LENGTH(ANG)         :  1.0203E+00
 INTEGRATION STEPS              :      43

 CLUSTER OF ATOMS AROUND THE TERMINUS OF THE PATH 
 NEW  OLD   AT. NU.         COORD.(AU)             DISTANCE (ANG)
     1       2       8        0.000   0.000   2.384          0.470
     2       1       6        0.000   0.000   0.000          0.791
     3       4       7        0.000  -2.170  -1.322          1.882
     4       3       7        0.000   2.170  -1.322          1.882


 ATTRACTOR CP TYPE              :  (3,-3)
 COORD(AU)  (X  Y  Z)           :  1.4229E-20 -1.3265E+00 -8.2972E-01
 PROPERTIES (-LAP,GLAP,RHO)     :  1.6391E+00  3.2630E-15  4.4539E-01
 TRAJECTORY LENGTH(ANG)         :  8.9294E-01
 INTEGRATION STEPS              :      29

 CLUSTER OF ATOMS AROUND THE TERMINUS OF THE PATH 
 NEW  OLD   AT. NU.         COORD.(AU)             DISTANCE (ANG)
     1       4       7        0.000  -2.170  -1.322          0.517
     2       1       6        0.000   0.000   0.000          0.828
     3       8       1        0.000  -2.143  -3.222          1.338
     4       6       1        0.000  -3.830  -0.383          1.346



 TTRAJ (ANG) ; RAB ; (TTRAJ/RAB):  1.9132E+00  1.4163E+00  1.3508E+00

 CP N.     23   VSCC OF NON-EQUIV. ATOM      1 C 
 *********

 CP TYPE                        :  (3,+1)
 COORD(AU)  (X  Y  Z)           :  1.4742E+00 -2.3700E-01  8.0809E-02
 PROPERTIES (-LAP,GLAP,RHO)     : -1.4889E-01  8.0648E-12  5.7233E-02

 SPECTRAL DECOMP. OF THE HESSIAN OF -LAP(RHO)

 EIGENVALUES (L1 L2 L3)         : -7.6938E-02  1.3497E-01  7.0129E-01
 EIGENVECTORS                   :  6.0261E-02 -2.0857E-01  9.7615E-01
                                  -8.5293E-01 -5.1878E-01 -5.8192E-02
                                   5.1854E-01 -8.2908E-01 -2.0916E-01


 VECTORS FROM NUCLEI TO CP (LENGTHS AND ANGLES MADE WITH PROJ. ONTO YZ,XZ,XY)


 SYM OLD    RX(ANG)    YZ      XZ      XY
 C      1      0.7913   80.36    9.12    3.10
 O      2      1.4524   32.49    4.95   57.04
 N      3      1.6680   27.88   49.78   26.43
 N      4      1.4853   31.68   43.52   30.00
 H      5      2.3021   19.81   69.19    6.12
 H      6      2.0696   22.14   66.72    6.81
 H      7      2.2912   19.91   33.35   49.71
 H      8      2.1635   21.14   27.79   53.89

 CP N.     24   VSCC OF NON-EQUIV. ATOM      1 C 
 *********

 CP TYPE                        :  (3,-1)
 COORD(AU)  (X  Y  Z)           :  1.4614E+00 -5.0691E-01 -3.6306E-01
 PROPERTIES (-LAP,GLAP,RHO)     : -1.3983E-01  2.5667E-16  5.7464E-02

 SPECTRAL DECOMP. OF THE HESSIAN OF -LAP(RHO)

 EIGENVALUES (L1 L2 L3)         : -2.2678E-01 -1.3947E-01  8.1775E-01
 EIGENVECTORS                   : -8.5504E-02  3.4986E-02  9.9572E-01
                                  -8.3415E-01 -5.4906E-01 -5.2337E-02
                                  -5.4488E-01  8.3505E-01 -7.6130E-02


 VECTORS FROM NUCLEI TO CP (LENGTHS AND ANGLES MADE WITH PROJ. ONTO YZ,XZ,XY)


 SYM OLD    RX(ANG)    YZ      XZ      XY
 C      1      0.8408   66.89   18.60   13.21
 O      2      1.6682   27.62    9.25   60.61
 N      3      1.6918   27.20   56.85   17.46
 N      4      1.2768   37.28   43.57   23.43
 H      5      2.4216   18.62   71.37    0.25
 H      6      1.9209   23.74   66.26    0.32
 H      7      2.2030   20.55   39.53   43.37
 H      8      1.9069   23.93   27.00   52.50

 **********
 ATTRACTORS OF THE UNIQUE PAIRS OF GRAD(LAP) TRAJ. ORIGINATING AT (3,-1) CP
 **********


 MAX. NUMBER OF STEP EXCEEDED IN THE PATH ATTRACTOR SEARCH; NSTEP= 200
 ATTRACTOR CP TYPE              :  (3,-3)
 COORD(AU)  (X  Y  Z)           : -3.6653E-23 -1.3265E+00 -8.2972E-01
 PROPERTIES (-LAP,GLAP,RHO)     :  1.6391E+00  1.4882E-15  4.4539E-01
 TRAJECTORY LENGTH(ANG)         :  1.0185E+00
 INTEGRATION STEPS              :      30

 CLUSTER OF ATOMS AROUND THE TERMINUS OF THE PATH 
 NEW  OLD   AT. NU.         COORD.(AU)             DISTANCE (ANG)
     1       4       7        0.000  -2.170  -1.322          0.517
     2       1       6        0.000   0.000   0.000          0.828
     3       8       1        0.000  -2.143  -3.222          1.338
     4       6       1        0.000  -3.830  -0.383          1.346



 TTRAJ (ANG) ; RAB ; (TTRAJ/RAB):  1.0185E+00  8.2795E-01  1.2302E+00

 NON-EQUIV. ATOM C      1  NUMBER OF CPS FOUND: 24


      ********** C R I T I C A L  P O I N T S  F O U N D **********


   X(AU)   Y(AU)   Z(AU)    TYPE     -LAP      RHO    L1(V1)   L2(V2)   L3(V3)

 *******************************************************************************

   1.197   0.000  -0.138  (3,+1)   -0.144    0.093    -1.012    0.366    0.460

 ( C     1   1.205 AU )   -0.998   -0.067    0.000
                                                      -0.000    0.000    1.000
                                                       0.067   -0.998    0.000

   0.902   0.595   0.204  (3,-1)   -0.097    0.134    -4.019   -0.481    1.643

 ( C     1   1.100 AU )    0.751    0.655    0.083
                                                       0.619   -0.655   -0.434
                                                       0.230   -0.377    0.897

  -0.000  -0.000   1.495  (3,-3)    1.670    0.574   -36.015   -7.655   -6.136

 ( O     2   0.889 AU )    0.000    0.000    1.000
                                                      -0.000   -1.000    0.000
                                                      -1.000    0.000    0.000

   0.000   1.326  -0.830  (3,-3)    1.639    0.445   -14.154  -11.260   -5.538

 ( N     3   0.977 AU )   -0.000   -0.000    1.000
                                                       0.873   -0.488    0.000
                                                      -0.488   -0.873   -0.000

   1.474   0.237   0.081  (3,+1)   -0.149    0.057    -0.077    0.135    0.701

 ( C     1   1.495 AU )    0.060    0.209    0.976
                                                       0.853   -0.519    0.058
                                                       0.519    0.829   -0.209

   1.461   0.507  -0.363  (3,-1)   -0.140    0.057    -0.227   -0.139    0.818

 ( C     1   1.589 AU )    0.086    0.035    0.996
                                                      -0.834    0.549    0.052
                                                       0.545    0.835   -0.076

   0.875   0.000  -0.710  (3,-1)   -0.120    0.128    -3.150   -0.288    1.368

 ( C     1   1.127 AU )   -0.675    0.737    0.000
                                                      -0.000   -0.000    1.000
                                                       0.737    0.675    0.000

  -0.000  -1.326  -0.830  (3,-3)    1.639    0.445   -14.154  -11.260   -5.538

 ( N     4   0.977 AU )   -0.000    0.000    1.000
                                                       0.873    0.488    0.000
                                                       0.488   -0.873    0.000

   0.000  -0.000  -1.046  (3,+1)   -0.193    0.177    -5.788    0.441    3.034

 ( C     1   1.046 AU )    0.000    1.000    0.000
                                                      -0.000    0.000   -1.000
                                                      -1.000    0.000    0.000

  -0.000   0.964   0.444  (3,+1)   -0.234    0.172    -5.148    0.703    2.567

 ( C     1   1.061 AU )    0.000   -1.000   -0.000
                                                       0.934    0.000   -0.359
                                                       0.359    0.000    0.934

   1.434   0.000  -0.083  (3,+3)   -0.150    0.061     0.078    0.101    0.514

 ( C     1   1.437 AU )   -0.215    0.000    0.977
                                                      -0.000   -1.000   -0.000
                                                      -0.977    0.000   -0.215

  -1.197   0.000  -0.138  (3,+1)   -0.144    0.093    -1.012    0.366    0.460

 ( C     1   1.205 AU )   -0.998    0.067    0.000
                                                       0.000    0.000    1.000
                                                      -0.067   -0.998    0.000

  -1.434   0.000  -0.083  (3,+3)   -0.150    0.061     0.078    0.101    0.514

 ( C     1   1.437 AU )    0.215    0.000    0.977
                                                      -0.000   -1.000    0.000
                                                      -0.977    0.000    0.215

  -0.875  -0.000  -0.710  (3,-1)   -0.120    0.128    -3.150   -0.288    1.368

 ( C     1   1.127 AU )   -0.675    0.737    0.000
                                                      -0.000   -0.000   -1.000
                                                      -0.737   -0.675    0.000

  -0.902   0.595   0.204  (3,-1)   -0.097    0.134    -4.019   -0.481    1.643

 ( C     1   1.100 AU )    0.751   -0.655   -0.083
                                                      -0.619   -0.655   -0.434
                                                      -0.230   -0.377    0.897

  -1.474   0.237   0.081  (3,+1)   -0.149    0.057    -0.077    0.135    0.701

 ( C     1   1.495 AU )   -0.060   -0.209    0.976
                                                       0.853   -0.519   -0.058
                                                       0.519    0.829    0.209

  -1.461   0.507  -0.363  (3,-1)   -0.140    0.057    -0.227   -0.139    0.818

 ( C     1   1.589 AU )   -0.086   -0.035    0.996
                                                      -0.834    0.549   -0.052
                                                       0.545    0.835    0.076

  -0.902  -0.595   0.204  (3,-1)   -0.097    0.134    -4.019   -0.481    1.643

 ( C     1   1.100 AU )    0.751    0.655   -0.083
                                                       0.619   -0.655    0.434
                                                      -0.230    0.377    0.897

  -1.474  -0.237   0.081  (3,+1)   -0.149    0.057    -0.077    0.135    0.701

 ( C     1   1.495 AU )   -0.060    0.209    0.976
                                                      -0.853   -0.519    0.058
                                                       0.519   -0.829    0.209

  -1.461  -0.507  -0.363  (3,-1)   -0.140    0.057    -0.227   -0.139    0.818

 ( C     1   1.589 AU )    0.086   -0.035    0.996
                                                      -0.834   -0.549    0.052
                                                      -0.545    0.835    0.076

   0.000  -0.964   0.444  (3,+1)   -0.234    0.172    -5.148    0.703    2.567

 ( C     1   1.061 AU )    0.000   -1.000    0.000
                                                       0.934    0.000    0.359
                                                      -0.359   -0.000    0.934

   0.902  -0.595   0.204  (3,-1)   -0.097    0.134    -4.019   -0.481    1.643

 ( C     1   1.100 AU )    0.751   -0.655    0.083
                                                      -0.619   -0.655    0.434
                                                       0.230    0.377    0.897

   1.474  -0.237   0.081  (3,+1)   -0.149    0.057    -0.077    0.135    0.701

 ( C     1   1.495 AU )    0.060   -0.209    0.976
                                                      -0.853   -0.519   -0.058
                                                       0.519   -0.829   -0.209

   1.461  -0.507  -0.363  (3,-1)   -0.140    0.057    -0.227   -0.139    0.818

 ( C     1   1.589 AU )   -0.086    0.035    0.996
                                                      -0.834   -0.549   -0.052
                                                      -0.545    0.835   -0.076
 *******************************************************************************


 ****** CP SEARCH FOR NON-EQUIVALENT ATOM      2 O  ******

 SPHERE RADIUS (ANG)            :  3.4926E-01

 CP N.      1   VSCC OF NON-EQUIV. ATOM      2 O 
 *********

 CP TYPE                        :  (3,+1)
 COORD(AU)  (X  Y  Z)           :  0.0000E+00  3.1823E-20  3.0739E+00
 PROPERTIES (-LAP,GLAP,RHO)     :  2.1322E+00  1.2434E-14  7.5731E-01

 SPECTRAL DECOMP. OF THE HESSIAN OF -LAP(RHO)

 EIGENVALUES (L1 L2 L3)         : -1.4124E+02  5.6611E-01  7.9435E+00
 EIGENVECTORS                   :  0.0000E+00  1.0000E+00  0.0000E+00
                                   0.0000E+00  0.0000E+00  1.0000E+00
                                   1.0000E+00  0.0000E+00  0.0000E+00


 VECTORS FROM NUCLEI TO CP (LENGTHS AND ANGLES MADE WITH PROJ. ONTO YZ,XZ,XY)


 SYM OLD    RX(ANG)    YZ      XZ      XY
 O      2      0.3652    0.00    0.00   90.00
 C      1      1.6266    0.00    0.00   90.00
 N      3      2.5944    0.00   26.27   63.73
 N      4      2.5944    0.00   26.27   63.73
 H      5      2.7302    0.00   47.93   42.07
 H      6      2.7302    0.00   47.93   42.07
 H      7      3.5193    0.00   18.80   71.20
 H      8      3.5193    0.00   18.80   71.20

 CP N.      2   VSCC OF NON-EQUIV. ATOM      2 O 
 *********

 CP TYPE                        :  (3,+1)
 COORD(AU)  (X  Y  Z)           :  5.7647E-01  8.5351E-18  1.8228E+00
 PROPERTIES (-LAP,GLAP,RHO)     :  1.0874E+00  7.1762E-14  5.7636E-01

 SPECTRAL DECOMP. OF THE HESSIAN OF -LAP(RHO)

 EIGENVALUES (L1 L2 L3)         : -6.3572E+01  1.6873E+00  6.0175E+00
 EIGENVECTORS                   : -8.0003E-01  0.0000E+00 -5.9996E-01
                                  -8.6658E-17  1.0000E+00  1.5246E-16
                                   5.9996E-01  1.7730E-16 -8.0003E-01


 VECTORS FROM NUCLEI TO CP (LENGTHS AND ANGLES MADE WITH PROJ. ONTO YZ,XZ,XY)


 SYM OLD    RX(ANG)    YZ      XZ      XY
 O      2      0.4256   45.78    0.00   44.22
 C      1      1.0117   17.55    0.00   72.45
 N      3      2.0449    8.58   34.16   54.48
 N      4      2.0449    8.58   34.16   54.48
 H      5      2.3585    7.43   59.23   29.67
 H      6      2.3585    7.43   59.23   29.67
 H      7      2.9164    6.00   22.88   66.25
 H      8      2.9164    6.00   22.88   66.25

 CP N.      3   VSCC OF NON-EQUIV. ATOM      2 O 
 *********

 CP TYPE                        :  (3,-3)
 COORD(AU)  (X  Y  Z)           :  9.5545E-19  6.6075E-18  1.4949E+00
 PROPERTIES (-LAP,GLAP,RHO)     :  1.6699E+00  1.6103E-15  5.7403E-01

 SPECTRAL DECOMP. OF THE HESSIAN OF -LAP(RHO)

 EIGENVALUES (L1 L2 L3)         : -3.6015E+01 -7.6555E+00 -6.1357E+00
 EIGENVECTORS                   :  0.0000E+00  0.0000E+00  1.0000E+00
                                  -1.3672E-16  1.0000E+00  0.0000E+00
                                   1.0000E+00  1.7730E-16  0.0000E+00


 VECTORS FROM NUCLEI TO CP (LENGTHS AND ANGLES MADE WITH PROJ. ONTO YZ,XZ,XY)


 SYM OLD    RX(ANG)    YZ      XZ      XY
 O      2      0.4703    0.00    0.00   90.00
 C      1      0.7911    0.00    0.00   90.00
 N      3      1.8818    0.00   37.60   52.40
 N      4      1.8818    0.00   37.60   52.40
 H      5      2.2571    0.00   63.88   26.12
 H      6      2.2571    0.00   63.88   26.12
 H      7      2.7416    0.00   24.43   65.57
 H      8      2.7416    0.00   24.43   65.57

 CP N.      4   VSCC OF NON-EQUIV. ATOM      2 O 
 *********

 CP TYPE                        :  (3,-3)
 COORD(AU)  (X  Y  Z)           :  3.6637E-14  6.2304E-01  2.5987E+00
 PROPERTIES (-LAP,GLAP,RHO)     :  3.4944E+00  9.8165E-13  8.9918E-01

 SPECTRAL DECOMP. OF THE HESSIAN OF -LAP(RHO)

 EIGENVALUES (L1 L2 L3)         : -1.6016E+02 -1.3045E+01 -8.4200E+00
 EIGENVECTORS                   :  1.3773E-12  3.2502E-14  1.0000E+00
                                   9.4018E-01  3.4068E-01 -1.3060E-12
                                   3.4068E-01 -9.4018E-01 -4.3865E-13


 VECTORS FROM NUCLEI TO CP (LENGTHS AND ANGLES MADE WITH PROJ. ONTO YZ,XZ,XY)


 SYM OLD    RX(ANG)    YZ      XZ      XY
 O      2      0.3488    0.00   70.96   19.04
 C      1      1.4142    0.00   13.48   76.52
 N      3      2.2306    0.00   21.53   68.47
 N      4      2.5475    0.00   35.46   54.54
 H      5      2.3172    0.00   47.08   42.92
 H      6      2.8358    0.00   56.19   33.81
 H      7      3.1835    0.00   14.64   75.36
 H      8      3.4103    0.00   25.42   64.58

 CP N.      5   VSCC OF NON-EQUIV. ATOM      2 O 
 *********

 CP TYPE                        :  (3,-1)
 COORD(AU)  (X  Y  Z)           :  1.3498E-18  4.5104E-01  1.7115E+00
 PROPERTIES (-LAP,GLAP,RHO)     :  1.2543E+00  5.7732E-15  5.9936E-01

 SPECTRAL DECOMP. OF THE HESSIAN OF -LAP(RHO)

 EIGENVALUES (L1 L2 L3)         : -6.3539E+01 -9.2236E-01  8.9889E+00
 EIGENVECTORS                   : -1.1503E-17 -1.0000E+00  1.0502E-18
                                   6.9220E-01 -7.2044E-18  7.2171E-01
                                  -7.2171E-01  9.0287E-18  6.9220E-01


 VECTORS FROM NUCLEI TO CP (LENGTHS AND ANGLES MADE WITH PROJ. ONTO YZ,XZ,XY)


 SYM OLD    RX(ANG)    YZ      XZ      XY
 O      2      0.4284    0.00   33.86   56.14
 C      1      0.9366    0.00   14.76   75.24
 N      3      1.8452    0.00   29.53   60.47
 N      4      2.1216    0.00   40.82   49.18
 H      5      2.1036    0.00   58.20   31.80
 H      6      2.5219    0.00   63.93   26.07
 H      7      2.7599    0.00   18.93   71.07
 H      8      2.9496    0.00   27.74   62.26

 **********
 ATTRACTORS OF THE UNIQUE PAIRS OF GRAD(LAP) TRAJ. ORIGINATING AT (3,-1) CP
 **********

 ATTRACTOR CP TYPE              :  (3,-3)
 COORD(AU)  (X  Y  Z)           :  1.8796E-35  6.2304E-01  2.5987E+00
 PROPERTIES (-LAP,GLAP,RHO)     :  3.4944E+00  1.5888E-14  8.9918E-01
 TRAJECTORY LENGTH(ANG)         :  5.0962E-01
 INTEGRATION STEPS              :      47

 CLUSTER OF ATOMS AROUND THE TERMINUS OF THE PATH 
 NEW  OLD   AT. NU.         COORD.(AU)             DISTANCE (ANG)
     1       2       8        0.000   0.000   2.384          0.349
     2       1       6        0.000   0.000   0.000          1.414
     3       3       7        0.000   2.170  -1.322          2.231
     4       5       1        0.000   3.830  -0.383          2.317


 ATTRACTOR CP TYPE              :  (3,-3)
 COORD(AU)  (X  Y  Z)           : -2.4820E-28 -1.0463E-11  1.4949E+00
 PROPERTIES (-LAP,GLAP,RHO)     :  1.6699E+00  8.4430E-11  5.7403E-01
 TRAJECTORY LENGTH(ANG)         :  2.7184E-01
 INTEGRATION STEPS              :      29

 CLUSTER OF ATOMS AROUND THE TERMINUS OF THE PATH 
 NEW  OLD   AT. NU.         COORD.(AU)             DISTANCE (ANG)
     1       2       8        0.000   0.000   2.384          0.470
     2       1       6        0.000   0.000   0.000          0.791
     3       4       7        0.000  -2.170  -1.322          1.882
     4       3       7        0.000   2.170  -1.322          1.882



 TTRAJ (ANG) ; RAB ; (TTRAJ/RAB):  7.8147E-01  6.7073E-01  1.1651E+00

 CP N.      6   VSCC OF NON-EQUIV. ATOM      2 O 
 *********

 CP TYPE                        :  (3,+1)
 COORD(AU)  (X  Y  Z)           : -5.7647E-01  6.1132E-16  1.8228E+00
 PROPERTIES (-LAP,GLAP,RHO)     :  1.0874E+00  5.6389E-15  5.7636E-01

 SPECTRAL DECOMP. OF THE HESSIAN OF -LAP(RHO)

 EIGENVALUES (L1 L2 L3)         : -6.3572E+01  1.6873E+00  6.0175E+00
 EIGENVECTORS                   : -8.0003E-01  0.0000E+00  5.9996E-01
                                   8.1557E-16  1.0000E+00  1.1529E-15
                                  -5.9996E-01  1.4334E-15 -8.0003E-01


 VECTORS FROM NUCLEI TO CP (LENGTHS AND ANGLES MADE WITH PROJ. ONTO YZ,XZ,XY)


 SYM OLD    RX(ANG)    YZ      XZ      XY
 O      2      0.4256   45.78    0.00   44.22
 C      1      1.0117   17.55    0.00   72.45
 N      3      2.0449    8.58   34.16   54.48
 N      4      2.0449    8.58   34.16   54.48
 H      5      2.3585    7.43   59.23   29.67
 H      6      2.3585    7.43   59.23   29.67
 H      7      2.9164    6.00   22.88   66.25
 H      8      2.9164    6.00   22.88   66.25

 CP N.      7   VSCC OF NON-EQUIV. ATOM      2 O 
 *********

 CP TYPE                        :  (3,-3)
 COORD(AU)  (X  Y  Z)           : -3.6637E-14 -6.2304E-01  2.5987E+00
 PROPERTIES (-LAP,GLAP,RHO)     :  3.4944E+00  9.8165E-13  8.9918E-01

 SPECTRAL DECOMP. OF THE HESSIAN OF -LAP(RHO)

 EIGENVALUES (L1 L2 L3)         : -1.6016E+02 -1.3045E+01 -8.4200E+00
 EIGENVECTORS                   :  1.3773E-12 -3.2502E-14  1.0000E+00
                                   9.4018E-01 -3.4068E-01 -1.3060E-12
                                  -3.4068E-01 -9.4018E-01  4.3865E-13


 VECTORS FROM NUCLEI TO CP (LENGTHS AND ANGLES MADE WITH PROJ. ONTO YZ,XZ,XY)


 SYM OLD    RX(ANG)    YZ      XZ      XY
 O      2      0.3488    0.00   70.96   19.04
 C      1      1.4142    0.00   13.48   76.52
 N      3      2.5475    0.00   35.46   54.54
 N      4      2.2306    0.00   21.53   68.47
 H      5      2.8358    0.00   56.19   33.81
 H      6      2.3172    0.00   47.08   42.92
 H      7      3.4103    0.00   25.42   64.58
 H      8      3.1835    0.00   14.64   75.36

 CP N.      8   VSCC OF NON-EQUIV. ATOM      2 O 
 *********

 CP TYPE                        :  (3,-1)
 COORD(AU)  (X  Y  Z)           : -1.3498E-18 -4.5104E-01  1.7115E+00
 PROPERTIES (-LAP,GLAP,RHO)     :  1.2543E+00  9.7498E-15  5.9936E-01

 SPECTRAL DECOMP. OF THE HESSIAN OF -LAP(RHO)

 EIGENVALUES (L1 L2 L3)         : -6.3539E+01 -9.2236E-01  8.9889E+00
 EIGENVECTORS                   : -1.1503E-17 -1.0000E+00 -1.0502E-18
                                   6.9220E-01 -7.2045E-18 -7.2171E-01
                                   7.2171E-01 -9.0288E-18  6.9220E-01


 VECTORS FROM NUCLEI TO CP (LENGTHS AND ANGLES MADE WITH PROJ. ONTO YZ,XZ,XY)


 SYM OLD    RX(ANG)    YZ      XZ      XY
 O      2      0.4284    0.00   33.86   56.14
 C      1      0.9366    0.00   14.76   75.24
 N      3      2.1216    0.00   40.82   49.18
 N      4      1.8452    0.00   29.53   60.47
 H      5      2.5219    0.00   63.93   26.07
 H      6      2.1036    0.00   58.20   31.80
 H      7      2.9496    0.00   27.74   62.26
 H      8      2.7599    0.00   18.93   71.07

 **********
 ATTRACTORS OF THE UNIQUE PAIRS OF GRAD(LAP) TRAJ. ORIGINATING AT (3,-1) CP
 **********

 ATTRACTOR CP TYPE              :  (3,-3)
 COORD(AU)  (X  Y  Z)           : -1.8796E-35 -6.2304E-01  2.5987E+00
 PROPERTIES (-LAP,GLAP,RHO)     :  3.4944E+00  9.0577E-15  8.9918E-01
 TRAJECTORY LENGTH(ANG)         :  5.0962E-01
 INTEGRATION STEPS              :      47

 CLUSTER OF ATOMS AROUND THE TERMINUS OF THE PATH 
 NEW  OLD   AT. NU.         COORD.(AU)             DISTANCE (ANG)
     1       2       8        0.000   0.000   2.384          0.349
     2       1       6        0.000   0.000   0.000          1.414
     3       4       7        0.000  -2.170  -1.322          2.231
     4       6       1        0.000  -3.830  -0.383          2.317


 ATTRACTOR CP TYPE              :  (3,-3)
 COORD(AU)  (X  Y  Z)           :  2.4821E-28  1.0463E-11  1.4949E+00
 PROPERTIES (-LAP,GLAP,RHO)     :  1.6699E+00  8.4431E-11  5.7403E-01
 TRAJECTORY LENGTH(ANG)         :  2.7184E-01
 INTEGRATION STEPS              :      29

 CLUSTER OF ATOMS AROUND THE TERMINUS OF THE PATH 
 NEW  OLD   AT. NU.         COORD.(AU)             DISTANCE (ANG)
     1       2       8        0.000   0.000   2.384          0.470
     2       1       6        0.000   0.000   0.000          0.791
     3       3       7        0.000   2.170  -1.322          1.882
     4       4       7        0.000  -2.170  -1.322          1.882



 TTRAJ (ANG) ; RAB ; (TTRAJ/RAB):  7.8147E-01  6.7073E-01  1.1651E+00

 NON-EQUIV. ATOM O      2  NUMBER OF CPS FOUND:  8


      ********** C R I T I C A L  P O I N T S  F O U N D **********


   X(AU)   Y(AU)   Z(AU)    TYPE     -LAP      RHO    L1(V1)   L2(V2)   L3(V3)

 *******************************************************************************

   0.000   0.000   3.074  (3,+1)    2.132    0.757  -141.236    0.566    7.943

 ( O     2   0.690 AU )    0.000    1.000    0.000
                                                       0.000    0.000    1.000
                                                       1.000    0.000    0.000

   0.576   0.000   1.823  (3,+1)    1.087    0.576   -63.572    1.687    6.017

 ( O     2   0.804 AU )   -0.800    0.000   -0.600
                                                      -0.000    1.000    0.000
                                                       0.600    0.000   -0.800

   0.000   0.000   1.495  (3,-3)    1.670    0.574   -36.015   -7.655   -6.136

 ( O     2   0.889 AU )    0.000    0.000    1.000
                                                      -0.000    1.000    0.000
                                                       1.000    0.000    0.000

   0.000   0.623   2.599  (3,-3)    3.494    0.899  -160.156  -13.045   -8.420

 ( O     2   0.659 AU )    0.000    0.000    1.000
                                                       0.940    0.341   -0.000
                                                       0.341   -0.940   -0.000

   0.000   0.451   1.711  (3,-1)    1.254    0.599   -63.539   -0.922    8.989

 ( O     2   0.810 AU )   -0.000   -1.000    0.000
                                                       0.692   -0.000    0.722
                                                      -0.722    0.000    0.692

  -0.576   0.000   1.823  (3,+1)    1.087    0.576   -63.572    1.687    6.017

 ( O     2   0.804 AU )   -0.800    0.000    0.600
                                                       0.000    1.000    0.000
                                                      -0.600    0.000   -0.800

  -0.000  -0.623   2.599  (3,-3)    3.494    0.899  -160.156  -13.045   -8.420

 ( O     2   0.659 AU )    0.000   -0.000    1.000
                                                       0.940   -0.341   -0.000
                                                      -0.341   -0.940    0.000

  -0.000  -0.451   1.711  (3,-1)    1.254    0.599   -63.539   -0.922    8.989

 ( O     2   0.810 AU )   -0.000   -1.000   -0.000
                                                       0.692   -0.000   -0.722
                                                       0.722   -0.000    0.692
 *******************************************************************************


 ****** CP SEARCH FOR NON-EQUIVALENT ATOM      3 N  ******

 SPHERE RADIUS (ANG)            :  4.1276E-01

 CP N.      1   VSCC OF NON-EQUIV. ATOM      3 N 
 *********

 CP TYPE                        :  (3,+1)
 COORD(AU)  (X  Y  Z)           :  0.0000E+00  2.1731E+00 -4.0760E-01
 PROPERTIES (-LAP,GLAP,RHO)     : -1.0090E-01  3.5134E-15  3.1390E-01

 SPECTRAL DECOMP. OF THE HESSIAN OF -LAP(RHO)

 EIGENVALUES (L1 L2 L3)         : -2.1289E+01  3.4182E+00  6.9008E+00
 EIGENVECTORS                   :  0.0000E+00  1.0000E+00  0.0000E+00
                                  -4.6804E-03  0.0000E+00  9.9999E-01
                                   9.9999E-01  0.0000E+00  4.6804E-03


 VECTORS FROM NUCLEI TO CP (LENGTHS AND ANGLES MADE WITH PROJ. ONTO YZ,XZ,XY)


 SYM OLD    RX(ANG)    YZ      XZ      XY
 N      3      0.4841    0.00    0.20   89.80
 H      7      1.4894    0.00    0.61   89.39
 H      5      0.8767    0.00   89.16    0.84
 C      1      1.1700    0.00   79.38   10.62
 O      2      1.8719    0.00   37.90   52.10
 N      4      2.3486    0.00   78.10   11.90
 H      8      2.7267    0.00   56.89   33.11
 H      6      3.1765    0.00   89.77    0.23

 CP N.      2   VSCC OF NON-EQUIV. ATOM      3 N 
 *********

 CP TYPE                        :  (3,-3)
 COORD(AU)  (X  Y  Z)           :  7.9923E-01  2.0741E+00 -1.2652E+00
 PROPERTIES (-LAP,GLAP,RHO)     :  1.3267E+00  1.9926E-11  4.7344E-01

 SPECTRAL DECOMP. OF THE HESSIAN OF -LAP(RHO)

 EIGENVALUES (L1 L2 L3)         : -3.0991E+01 -5.2435E+00 -3.6418E+00
 EIGENVECTORS                   : -9.9353E-01 -1.6847E-02  1.1234E-01
                                   9.2649E-02  4.5210E-01  8.8714E-01
                                  -6.5737E-02  8.9181E-01 -4.4761E-01


 VECTORS FROM NUCLEI TO CP (LENGTHS AND ANGLES MADE WITH PROJ. ONTO YZ,XZ,XY)


 SYM OLD    RX(ANG)    YZ      XZ      XY
 N      3      0.4270   82.05    6.82    4.07
 H      7      1.1191   22.21    1.87   67.71
 H      5      1.1224   22.14   55.86   24.57
 C      1      1.3534   18.21   54.19   29.65
 O      2      2.2610   10.78   29.04   58.65
 N      4      2.2855   10.66   79.31    0.76
 H      8      2.4962    9.75   63.38   24.51
 H      6      3.1870    7.63   78.60    8.42

 CP N.      3   VSCC OF NON-EQUIV. ATOM      3 N 
 *********

 CP TYPE                        :  (3,-1)
 COORD(AU)  (X  Y  Z)           :  6.3074E-01  2.1411E+00 -1.9078E+00
 PROPERTIES (-LAP,GLAP,RHO)     :  8.6843E-01  3.5538E-15  4.1022E-01

 SPECTRAL DECOMP. OF THE HESSIAN OF -LAP(RHO)

 EIGENVALUES (L1 L2 L3)         : -2.7743E+01 -4.2837E+00  5.7350E+00
 EIGENVECTORS                   :  8.0078E-01  4.4607E-02  5.9730E-01
                                  -2.3458E-02  9.9879E-01 -4.3142E-02
                                  -5.9850E-01  2.0535E-02  8.0086E-01


 VECTORS FROM NUCLEI TO CP (LENGTHS AND ANGLES MADE WITH PROJ. ONTO YZ,XZ,XY)


 SYM OLD    RX(ANG)    YZ      XZ      XY
 N      3      0.4556   47.10    1.91   42.83
 H      7      0.7714   25.64    0.08   64.36
 H      5      1.2492   15.50   45.66   40.22
 C      1      1.5538   12.40   46.82   40.52
 O      2      2.5598    7.49   26.27   62.52
 N      4      2.3263    8.25   78.71    7.65
 H      8      2.3948    8.01   71.21   16.88
 H      6      3.2780    5.84   74.55   14.25

 **********
 ATTRACTORS OF THE UNIQUE PAIRS OF GRAD(LAP) TRAJ. ORIGINATING AT (3,-1) CP
 **********

 ATTRACTOR CP TYPE              :  (3,-3)
 COORD(AU)  (X  Y  Z)           :  7.9923E-01  2.0741E+00 -1.2652E+00
 PROPERTIES (-LAP,GLAP,RHO)     :  1.3267E+00  4.5156E-15  4.7344E-01
 TRAJECTORY LENGTH(ANG)         :  3.7106E-01
 INTEGRATION STEPS              :      34

 CLUSTER OF ATOMS AROUND THE TERMINUS OF THE PATH 
 NEW  OLD   AT. NU.         COORD.(AU)             DISTANCE (ANG)
     1       3       7        0.000   2.170  -1.322          0.427
     2       7       1        0.000   2.143  -3.222          1.119
     3       5       1        0.000   3.830  -0.383          1.122
     4       1       6        0.000   0.000   0.000          1.353


 CP N.      4
**********

 ATTRACTOR CP TYPE              :  (3,-3)
 COORD(AU)  (X  Y  Z)           :  6.2662E-13  2.1623E+00 -2.2817E+00
 PROPERTIES (-LAP,GLAP,RHO)     :  1.6625E+00  8.6167E-12  4.2405E-01
 TRAJECTORY LENGTH(ANG)         :  3.9989E-01
 INTEGRATION STEPS              :      24

 CLUSTER OF ATOMS AROUND THE TERMINUS OF THE PATH 
 NEW  OLD   AT. NU.         COORD.(AU)             DISTANCE (ANG)
     1       7       1        0.000   2.143  -3.222          0.498
     2       3       7        0.000   2.170  -1.322          0.508
     3       5       1        0.000   3.830  -0.383          1.337
     4       1       6        0.000   0.000   0.000          1.663



 TTRAJ (ANG) ; RAB ; (TTRAJ/RAB):  7.7095E-01  6.8585E-01  1.1241E+00

 CP N.      5   VSCC OF NON-EQUIV. ATOM      3 N 
 *********

 CP TYPE                        :  (3,-1)
 COORD(AU)  (X  Y  Z)           :  6.3139E-01  2.6587E+00 -1.0260E+00
 PROPERTIES (-LAP,GLAP,RHO)     :  9.0261E-01  2.5920E-15  4.1849E-01

 SPECTRAL DECOMP. OF THE HESSIAN OF -LAP(RHO)

 EIGENVALUES (L1 L2 L3)         : -2.8644E+01 -4.5068E+00  5.6401E+00
 EIGENVECTORS                   :  8.0342E-01  4.7991E-02 -5.9348E-01
                                   5.0861E-01  4.6293E-01  7.2596E-01
                                   3.0958E-01 -8.8509E-01  3.4752E-01


 VECTORS FROM NUCLEI TO CP (LENGTHS AND ANGLES MADE WITH PROJ. ONTO YZ,XZ,XY)


 SYM OLD    RX(ANG)    YZ      XZ      XY
 N      3      0.4507   47.84   35.02   20.37
 H      7      1.2395   15.64   12.72   69.63
 H      5      0.7818   25.30   52.42   25.79
 C      1      1.5446   12.49   65.62   20.58
 O      2      2.3123    8.31   37.48   51.29
 N      4      2.5817    7.44   81.78    3.48
 H      8      2.8140    6.82   64.55   24.39
 H      6      3.4664    5.53   82.09    5.63

 **********
 ATTRACTORS OF THE UNIQUE PAIRS OF GRAD(LAP) TRAJ. ORIGINATING AT (3,-1) CP
 **********

 CP N.      6
**********

 ATTRACTOR CP TYPE              :  (3,-3)
 COORD(AU)  (X  Y  Z)           :  1.0616E-21  2.9986E+00 -8.6572E-01
 PROPERTIES (-LAP,GLAP,RHO)     :  1.7099E+00  3.1558E-15  4.3129E-01
 TRAJECTORY LENGTH(ANG)         :  4.0069E-01
 INTEGRATION STEPS              :      25

 CLUSTER OF ATOMS AROUND THE TERMINUS OF THE PATH 
 NEW  OLD   AT. NU.         COORD.(AU)             DISTANCE (ANG)
     1       3       7        0.000   2.170  -1.322          0.501
     2       5       1        0.000   3.830  -0.383          0.508
     3       7       1        0.000   2.143  -3.222          1.326
     4       1       6        0.000   0.000   0.000          1.652


 ATTRACTOR CP TYPE              :  (3,-3)
 COORD(AU)  (X  Y  Z)           :  7.9923E-01  2.0741E+00 -1.2652E+00
 PROPERTIES (-LAP,GLAP,RHO)     :  1.3267E+00  1.2050E-14  4.7344E-01
 TRAJECTORY LENGTH(ANG)         :  3.5652E-01
 INTEGRATION STEPS              :      36

 CLUSTER OF ATOMS AROUND THE TERMINUS OF THE PATH 
 NEW  OLD   AT. NU.         COORD.(AU)             DISTANCE (ANG)
     1       3       7        0.000   2.170  -1.322          0.427
     2       7       1        0.000   2.143  -3.222          1.119
     3       5       1        0.000   3.830  -0.383          1.122
     4       1       6        0.000   0.000   0.000          1.353



 TTRAJ (ANG) ; RAB ; (TTRAJ/RAB):  7.5720E-01  6.8039E-01  1.1129E+00

 CP N.      7   VSCC OF NON-EQUIV. ATOM      3 N 
 *********

 CP TYPE                        :  (3,+3)
 COORD(AU)  (X  Y  Z)           :  7.3162E-11  3.3550E+00 -2.0297E+00
[...]
                                                       0.180   -0.478    0.860

  -1.006   4.233  -0.279  (3,-1)   -0.069    0.037    -0.399   -0.009    0.088

 ( H     5   1.088 AU )    0.980    0.112   -0.165
                                                       0.089    0.496    0.864
                                                       0.179   -0.861    0.476

   0.000   3.269  -0.707  (3,-1)    1.330    0.358   -14.207  -12.932   26.333

 ( H     5   0.647 AU )    0.000   -1.000   -0.000
                                                      -0.499   -0.000    0.867
                                                       0.867   -0.000    0.499

   0.000   2.999  -0.866  (3,-3)    1.710    0.431   -20.455  -11.017   -7.365

 ( N     3   0.946 AU )    0.000    0.000    1.000
                                                       0.884    0.468   -0.000
                                                       0.468   -0.884   -0.000
 *******************************************************************************


 ****** CP SEARCH FOR NON-EQUIVALENT ATOM      5 H  ******

 SPHERE RADIUS (ANG)            :  3.8000E-01

 CP N.      1   VSCC OF NON-EQUIV. ATOM      5 H 
 *********

 CP TYPE                        :  (3,-1)
 COORD(AU)  (X  Y  Z)           :  0.0000E+00  2.1522E+00 -2.5715E+00
 PROPERTIES (-LAP,GLAP,RHO)     :  1.3493E+00  1.5124E-14  3.6198E-01

 SPECTRAL DECOMP. OF THE HESSIAN OF -LAP(RHO)

 EIGENVALUES (L1 L2 L3)         : -1.4175E+01 -1.2822E+01  2.5455E+01
 EIGENVECTORS                   :  0.0000E+00 -1.0000E+00  0.0000E+00
                                  -9.9985E-01 -0.0000E+00  1.7519E-02
                                   1.7519E-02  0.0000E+00  9.9985E-01


 VECTORS FROM NUCLEI TO CP (LENGTHS AND ANGLES MADE WITH PROJ. ONTO YZ,XZ,XY)


 SYM OLD    RX(ANG)    YZ      XZ      XY
 H      7      0.3442    0.00    0.80   89.20
 N      3      0.6610    0.00    0.81   89.19
 H      5      1.4590    0.00   37.47   52.53
 C      1      1.7745    0.00   39.93   50.07
 H      8      2.2989    0.00   81.39    8.61
 N      4      2.3807    0.00   73.88   16.12
 O      2      2.8588    0.00   23.48   66.52
 H      6      3.3706    0.00   69.91   20.09

 **********
 ATTRACTORS OF THE UNIQUE PAIRS OF GRAD(LAP) TRAJ. ORIGINATING AT (3,-1) CP
 **********

 CP N.      2
**********

 ATTRACTOR CP TYPE              :  (3,-3)
 COORD(AU)  (X  Y  Z)           :  0.0000E+00  2.1623E+00 -2.2817E+00
 PROPERTIES (-LAP,GLAP,RHO)     :  1.6625E+00  1.0890E-15  4.2405E-01
 TRAJECTORY LENGTH(ANG)         :  1.5360E-01
 INTEGRATION STEPS              :      17

 CLUSTER OF ATOMS AROUND THE TERMINUS OF THE PATH 
 NEW  OLD   AT. NU.         COORD.(AU)             DISTANCE (ANG)
     1       7       1        0.000   2.143  -3.222          0.498
     2       3       7        0.000   2.170  -1.322          0.508
     3       5       1        0.000   3.830  -0.383          1.337
     4       1       6        0.000   0.000   0.000          1.663


 CP N.      3
**********

 ATTRACTOR CP TYPE              :  (3,-3)
 COORD(AU)  (X  Y  Z)           :  0.0000E+00  2.1433E+00 -3.1819E+00
 PROPERTIES (-LAP,GLAP,RHO)     :  7.7675E+00  2.3317E-11  3.6709E-01
 TRAJECTORY LENGTH(ANG)         :  3.2304E-01
 INTEGRATION STEPS              :      19

 CLUSTER OF ATOMS AROUND THE TERMINUS OF THE PATH 
 NEW  OLD   AT. NU.         COORD.(AU)             DISTANCE (ANG)
     1       7       1        0.000   2.143  -3.222          0.021
     2       3       7        0.000   2.170  -1.322          0.984
     3       5       1        0.000   3.830  -0.383          1.729
     4       1       6        0.000   0.000   0.000          2.030



 TTRAJ (ANG) ; RAB ; (TTRAJ/RAB):  4.7665E-01  4.7646E-01  1.0004E+00

 CP N.      4   VSCC OF NON-EQUIV. ATOM      5 H 
 *********

 CP TYPE                        :  (3,-1)
 COORD(AU)  (X  Y  Z)           :  8.5873E-01  2.1118E+00 -3.0880E+00
 PROPERTIES (-LAP,GLAP,RHO)     : -7.1187E-02  4.5692E-14  1.0167E-01

 SPECTRAL DECOMP. OF THE HESSIAN OF -LAP(RHO)

 EIGENVALUES (L1 L2 L3)         : -2.0120E+00 -8.1636E-02  5.4115E-01
 EIGENVECTORS                   : -8.0992E-01  3.4248E-02  5.8553E-01
                                   2.5774E-02  9.9941E-01 -2.2804E-02
                                  -5.8597E-01 -3.3775E-03 -8.1033E-01


 VECTORS FROM NUCLEI TO CP (LENGTHS AND ANGLES MADE WITH PROJ. ONTO YZ,XZ,XY)


 SYM OLD    RX(ANG)    YZ      XZ      XY
 H      7      0.4602   80.90    2.06    8.86
 N      3      1.0394   25.92    1.69   64.01
 H      5      1.7554   15.00   31.19   54.62
 C      1      2.0312   12.93   33.38   53.56
 H      8      2.2981   11.40   78.46    1.77
 N      4      2.4926   10.50   65.37   22.01
 O      2      3.1368    8.33   20.87   67.38
 H      6      3.4843    7.49   64.47   24.25

 **********
 ATTRACTORS OF THE UNIQUE PAIRS OF GRAD(LAP) TRAJ. ORIGINATING AT (3,-1) CP
 **********

 CP N.      5
**********

 ATTRACTOR CP TYPE              :  (3,-3)
 COORD(AU)  (X  Y  Z)           :  9.7519E-01  2.1376E+00 -3.3939E+00
 PROPERTIES (-LAP,GLAP,RHO)     : -6.6436E-02  3.2569E-16  5.8319E-02
 TRAJECTORY LENGTH(ANG)         :  1.8478E-01
 INTEGRATION STEPS              :      62

 CLUSTER OF ATOMS AROUND THE TERMINUS OF THE PATH 
 NEW  OLD   AT. NU.         COORD.(AU)             DISTANCE (ANG)
     1       7       1        0.000   2.143  -3.222          0.524
     2       3       7        0.000   2.170  -1.322          1.212
     3       5       1        0.000   3.830  -0.383          1.899
     4       1       6        0.000   0.000   0.000          2.184


 ATTRACTOR CP TYPE              :  (3,-3)
 COORD(AU)  (X  Y  Z)           : -9.0662E-14  2.1433E+00 -3.1819E+00
 PROPERTIES (-LAP,GLAP,RHO)     :  7.7675E+00  5.3986E-11  3.6709E-01
 TRAJECTORY LENGTH(ANG)         :  5.3281E-01
 INTEGRATION STEPS              :      32

 CLUSTER OF ATOMS AROUND THE TERMINUS OF THE PATH 
 NEW  OLD   AT. NU.         COORD.(AU)             DISTANCE (ANG)
     1       7       1        0.000   2.143  -3.222          0.021
     2       3       7        0.000   2.170  -1.322          0.984
     3       5       1        0.000   3.830  -0.383          1.729
     4       1       6        0.000   0.000   0.000          2.030



 TTRAJ (ANG) ; RAB ; (TTRAJ/RAB):  7.1759E-01  5.2811E-01  1.3588E+00

 CP N.      6   VSCC OF NON-EQUIV. ATOM      5 H 
 *********

 CP TYPE                        :  (3,+3)
 COORD(AU)  (X  Y  Z)           : -3.1493E-20  2.1440E+00 -3.8436E+00
 PROPERTIES (-LAP,GLAP,RHO)     : -2.6939E-01  4.4629E-16  7.7106E-02

 SPECTRAL DECOMP. OF THE HESSIAN OF -LAP(RHO)

 EIGENVALUES (L1 L2 L3)         :  4.0276E-01  4.6706E-01  1.4240E+01
 EIGENVECTORS                   :  2.0659E-21  1.0000E+00 -9.3617E-18
                                   1.0000E+00 -1.1464E-20 -1.0039E-03
                                   1.0039E-03  9.3617E-18  1.0000E+00


 VECTORS FROM NUCLEI TO CP (LENGTHS AND ANGLES MADE WITH PROJ. ONTO YZ,XZ,XY)


 SYM OLD    RX(ANG)    YZ      XZ      XY
 H      7      0.3290    0.00    0.08   89.92
 N      3      1.3342    0.00    0.59   89.41
 H      5      2.0368    0.00   25.97   64.03
 C      1      2.3290    0.00   29.15   60.85
 H      8      2.2923    0.00   81.75    8.25
 N      4      2.6441    0.00   59.70   30.30
 O      2      3.4852    0.00   19.00   71.00
 H      6      3.6531    0.00   59.92   30.08

 CP N.      7   VSCC OF NON-EQUIV. ATOM      5 H 
 *********

 CP TYPE                        :  (3,+1)
 COORD(AU)  (X  Y  Z)           :  1.1543E-15  2.9554E+00 -3.0415E+00
 PROPERTIES (-LAP,GLAP,RHO)     : -1.0567E-01  1.0894E-15  1.0973E-01

 SPECTRAL DECOMP. OF THE HESSIAN OF -LAP(RHO)

 EIGENVALUES (L1 L2 L3)         : -1.6969E+00  1.0648E-01  1.4104E+00
 EIGENVECTORS                   : -1.3601E-15 -1.0000E+00 -8.0967E-16
                                   6.7520E-01 -3.2114E-16 -7.3763E-01
                                   7.3763E-01 -1.5500E-15  6.7520E-01


 VECTORS FROM NUCLEI TO CP (LENGTHS AND ANGLES MADE WITH PROJ. ONTO YZ,XZ,XY)


 SYM OLD    RX(ANG)    YZ      XZ      XY
 H      7      0.4403    0.00   77.48   12.52
 N      3      1.0002    0.00   24.56   65.44
 H      5      1.4808    0.00   18.20   71.80
 C      1      2.2442    0.00   44.18   45.82
 H      8      2.6997    0.00   87.97    2.03
 N      4      2.8607    0.00   71.46   18.54
 O      2      3.2693    0.00   28.58   61.42
 H      6      3.8562    0.00   68.61   21.39

 CP N.      8   VSCC OF NON-EQUIV. ATOM      5 H 
 *********

 CP TYPE                        :  (3,-1)
 COORD(AU)  (X  Y  Z)           : -8.5873E-01  2.1118E+00 -3.0880E+00
 PROPERTIES (-LAP,GLAP,RHO)     : -7.1187E-02  5.5570E-13  1.0167E-01

 SPECTRAL DECOMP. OF THE HESSIAN OF -LAP(RHO)

 EIGENVALUES (L1 L2 L3)         : -2.0120E+00 -8.1636E-02  5.4115E-01
 EIGENVECTORS                   : -8.0992E-01 -3.4248E-02 -5.8553E-01
                                  -2.5774E-02  9.9941E-01 -2.2804E-02
                                   5.8597E-01 -3.3775E-03 -8.1033E-01


 VECTORS FROM NUCLEI TO CP (LENGTHS AND ANGLES MADE WITH PROJ. ONTO YZ,XZ,XY)


 SYM OLD    RX(ANG)    YZ      XZ      XY
 H      7      0.4602   80.90    2.06    8.86
 N      3      1.0394   25.92    1.69   64.01
 H      5      1.7554   15.00   31.19   54.62
 C      1      2.0312   12.93   33.38   53.56
 H      8      2.2981   11.40   78.46    1.77
 N      4      2.4926   10.50   65.37   22.01
 O      2      3.1368    8.33   20.87   67.38
 H      6      3.4843    7.49   64.47   24.25

 **********
 ATTRACTORS OF THE UNIQUE PAIRS OF GRAD(LAP) TRAJ. ORIGINATING AT (3,-1) CP
 **********

 CP N.      9
**********

 ATTRACTOR CP TYPE              :  (3,-3)
 COORD(AU)  (X  Y  Z)           : -9.7519E-01  2.1376E+00 -3.3939E+00
 PROPERTIES (-LAP,GLAP,RHO)     : -6.6436E-02  1.1065E-16  5.8319E-02
 TRAJECTORY LENGTH(ANG)         :  1.8476E-01
 INTEGRATION STEPS              :      62

 CLUSTER OF ATOMS AROUND THE TERMINUS OF THE PATH 
 NEW  OLD   AT. NU.         COORD.(AU)             DISTANCE (ANG)
     1       7       1        0.000   2.143  -3.222          0.524
     2       3       7        0.000   2.170  -1.322          1.212
     3       5       1        0.000   3.830  -0.383          1.899
     4       1       6        0.000   0.000   0.000          2.184


 ATTRACTOR CP TYPE              :  (3,-3)
 COORD(AU)  (X  Y  Z)           :  9.0662E-14  2.1433E+00 -3.1819E+00
 PROPERTIES (-LAP,GLAP,RHO)     :  7.7675E+00  5.3986E-11  3.6709E-01
 TRAJECTORY LENGTH(ANG)         :  5.3281E-01
 INTEGRATION STEPS              :      32

 CLUSTER OF ATOMS AROUND THE TERMINUS OF THE PATH 
 NEW  OLD   AT. NU.         COORD.(AU)             DISTANCE (ANG)
     1       7       1        0.000   2.143  -3.222          0.021
     2       3       7        0.000   2.170  -1.322          0.984
     3       5       1        0.000   3.830  -0.383          1.729
     4       1       6        0.000   0.000   0.000          2.030



 TTRAJ (ANG) ; RAB ; (TTRAJ/RAB):  7.1758E-01  5.2811E-01  1.3588E+00

 CP N.     10   VSCC OF NON-EQUIV. ATOM      5 H 
 *********

 CP TYPE                        :  (3,-1)
 COORD(AU)  (X  Y  Z)           : -9.9546E-01  2.1842E+00 -3.6714E+00
 PROPERTIES (-LAP,GLAP,RHO)     : -6.7648E-02  2.3952E-15  3.7056E-02

 SPECTRAL DECOMP. OF THE HESSIAN OF -LAP(RHO)

 EIGENVALUES (L1 L2 L3)         : -3.8146E-01 -8.4294E-03  9.0134E-02
 EIGENVECTORS                   : -9.9312E-01 -3.8426E-02  1.1064E-01
                                   3.5855E-02 -9.9904E-01 -2.5142E-02
                                   1.1150E-01 -2.1002E-02  9.9354E-01


 VECTORS FROM NUCLEI TO CP (LENGTHS AND ANGLES MADE WITH PROJ. ONTO YZ,XZ,XY)


 SYM OLD    RX(ANG)    YZ      XZ      XY
 H      7      0.5784   65.61    2.15   24.28
 N      3      1.3501   22.97    0.32   67.03
 H      5      2.0158   15.15   25.59   59.68
 C      1      2.3212   13.12   29.86   56.82
 H      8      2.3617   12.89   75.83    5.78
 N      4      2.6704   11.38   59.63   27.74
 O      2      3.4468    8.79   19.59   68.38
 H      6      3.6650    8.26   60.26   28.34

 **********
 ATTRACTORS OF THE UNIQUE PAIRS OF GRAD(LAP) TRAJ. ORIGINATING AT (3,-1) CP
 **********

 ATTRACTOR CP TYPE              :  (3,-3)
 COORD(AU)  (X  Y  Z)           : -9.7519E-01  2.1376E+00 -3.3939E+00
 PROPERTIES (-LAP,GLAP,RHO)     : -6.6436E-02  4.3391E-14  5.8319E-02
 TRAJECTORY LENGTH(ANG)         :  1.5660E-01
 INTEGRATION STEPS              :      50

 CLUSTER OF ATOMS AROUND THE TERMINUS OF THE PATH 
 NEW  OLD   AT. NU.         COORD.(AU)             DISTANCE (ANG)
     1       7       1        0.000   2.143  -3.222          0.524
     2       3       7        0.000   2.170  -1.322          1.212
     3       5       1        0.000   3.830  -0.383          1.899
     4       1       6        0.000   0.000   0.000          2.184



 MAX. NUMBER OF STEP EXCEEDED IN THE PATH ATTRACTOR SEARCH; NSTEP= 200

 CP N.     11   VSCC OF NON-EQUIV. ATOM      5 H 
 *********

 CP TYPE                        :  (3,+1)
 COORD(AU)  (X  Y  Z)           : -9.2229E-16  1.3327E+00 -3.0358E+00
 PROPERTIES (-LAP,GLAP,RHO)     : -1.0375E-01  1.4834E-15  1.0873E-01

 SPECTRAL DECOMP. OF THE HESSIAN OF -LAP(RHO)

 EIGENVALUES (L1 L2 L3)         : -1.7016E+00  1.1406E-01  1.2942E+00
 EIGENVECTORS                   : -1.1781E-15 -1.0000E+00  6.2145E-16
                                   6.6522E-01 -3.1969E-16  7.4665E-01
                                  -7.4665E-01  1.2930E-15  6.6522E-01


 VECTORS FROM NUCLEI TO CP (LENGTHS AND ANGLES MADE WITH PROJ. ONTO YZ,XZ,XY)


 SYM OLD    RX(ANG)    YZ      XZ      XY
 H      7      0.4400    0.00   77.06   12.94
 N      3      1.0091    0.00   26.04   63.96
 H      5      1.9277    0.00   43.27   46.73
 C      1      1.7545    0.00   23.70   66.30
 H      8      1.8420    0.00   86.93    3.07
 N      4      2.0634    0.00   63.93   26.07
 O      2      2.9533    0.00   13.82   76.18
 H      6      3.0713    0.00   62.81   27.19

 CP N.     12   VSCC OF NON-EQUIV. ATOM      5 H 
 *********

 CP TYPE                        :  (3,-1)
 COORD(AU)  (X  Y  Z)           :  9.9546E-01  2.1842E+00 -3.6714E+00
 PROPERTIES (-LAP,GLAP,RHO)     : -6.7648E-02  2.3952E-15  3.7056E-02

 SPECTRAL DECOMP. OF THE HESSIAN OF -LAP(RHO)

 EIGENVALUES (L1 L2 L3)         : -3.8146E-01 -8.4294E-03  9.0134E-02
 EIGENVECTORS                   : -9.9312E-01  3.8426E-02 -1.1064E-01
                                  -3.5855E-02 -9.9904E-01 -2.5142E-02
                                  -1.1150E-01 -2.1002E-02  9.9354E-01


 VECTORS FROM NUCLEI TO CP (LENGTHS AND ANGLES MADE WITH PROJ. ONTO YZ,XZ,XY)


 SYM OLD    RX(ANG)    YZ      XZ      XY
 H      7      0.5784   65.61    2.15   24.28
 N      3      1.3501   22.97    0.32   67.03
 H      5      2.0158   15.15   25.59   59.68
 C      1      2.3212   13.12   29.86   56.82
 H      8      2.3617   12.89   75.83    5.78
 N      4      2.6704   11.38   59.63   27.74
 O      2      3.4468    8.79   19.59   68.38
 H      6      3.6650    8.26   60.26   28.34

 **********
 ATTRACTORS OF THE UNIQUE PAIRS OF GRAD(LAP) TRAJ. ORIGINATING AT (3,-1) CP
 **********

 ATTRACTOR CP TYPE              :  (3,-3)
 COORD(AU)  (X  Y  Z)           :  9.7519E-01  2.1376E+00 -3.3939E+00
 PROPERTIES (-LAP,GLAP,RHO)     : -6.6436E-02  4.3391E-14  5.8319E-02
 TRAJECTORY LENGTH(ANG)         :  1.5660E-01
 INTEGRATION STEPS              :      50

 CLUSTER OF ATOMS AROUND THE TERMINUS OF THE PATH 
 NEW  OLD   AT. NU.         COORD.(AU)             DISTANCE (ANG)
     1       7       1        0.000   2.143  -3.222          0.524
     2       3       7        0.000   2.170  -1.322          1.212
     3       5       1        0.000   3.830  -0.383          1.899
     4       1       6        0.000   0.000   0.000          2.184



 MAX. NUMBER OF STEP EXCEEDED IN THE PATH ATTRACTOR SEARCH; NSTEP= 200

 NON-EQUIV. ATOM H      5  NUMBER OF CPS FOUND: 12


      ********** C R I T I C A L  P O I N T S  F O U N D **********


   X(AU)   Y(AU)   Z(AU)    TYPE     -LAP      RHO    L1(V1)   L2(V2)   L3(V3)

 *******************************************************************************

   0.000   2.152  -2.571  (3,-1)    1.349    0.362   -14.175  -12.822   25.455

 ( H     7   0.651 AU )    0.000   -1.000    0.000
                                                      -1.000   -0.000    0.018
                                                       0.018    0.000    1.000

   0.000   2.162  -2.282  (3,-3)    1.663    0.424   -19.688  -10.694   -7.187

 ( H     7   0.940 AU )    0.000    0.000    1.000
                                                      -0.028    1.000    0.000
                                                       1.000    0.028    0.000

   0.000   2.143  -3.182  (3,-3)    7.767    0.367  -172.901 -172.457 -159.226

 ( H     7   0.040 AU )    0.000   -1.000    0.000
                                                      -1.000   -0.000    0.011
                                                       0.011    0.000    1.000

   0.859   2.112  -3.088  (3,-1)   -0.071    0.102    -2.012   -0.082    0.541

 ( H     7   0.870 AU )   -0.810    0.034    0.586
                                                       0.026    0.999   -0.023
                                                      -0.586   -0.003   -0.810

   0.975   2.138  -3.394  (3,-3)   -0.066    0.058    -1.210   -0.097   -0.027

 ( H     7   0.990 AU )   -0.991    0.136    0.014
                                                       0.006   -0.058    0.998
                                                      -0.136   -0.989   -0.056

  -0.000   2.144  -3.844  (3,+3)   -0.269    0.077     0.403    0.467   14.240

 ( H     7   0.622 AU )    0.000    1.000   -0.000
                                                       1.000   -0.000   -0.001
                                                       0.001    0.000    1.000

   0.000   2.955  -3.042  (3,+1)   -0.106    0.110    -1.697    0.106    1.410

 ( H     7   0.832 AU )   -0.000   -1.000   -0.000
                                                       0.675   -0.000   -0.738
                                                       0.738   -0.000    0.675

  -0.859   2.112  -3.088  (3,-1)   -0.071    0.102    -2.012   -0.082    0.541

 ( H     7   0.870 AU )   -0.810   -0.034   -0.586
                                                      -0.026    0.999   -0.023
                                                       0.586   -0.003   -0.810

  -0.975   2.138  -3.394  (3,-3)   -0.066    0.058    -1.210   -0.097   -0.027

 ( H     7   0.990 AU )   -0.991   -0.136   -0.014
                                                      -0.006   -0.058    0.998
                                                       0.136   -0.989   -0.056

  -0.995   2.184  -3.671  (3,-1)   -0.068    0.037    -0.381   -0.008    0.090

 ( H     7   1.093 AU )   -0.993   -0.038    0.111
                                                       0.036   -0.999   -0.025
                                                       0.111   -0.021    0.994

  -0.000   1.333  -3.036  (3,+1)   -0.104    0.109    -1.702    0.114    1.294

 ( H     7   0.831 AU )   -0.000   -1.000    0.000
                                                       0.665   -0.000    0.747
                                                      -0.747    0.000    0.665

   0.995   2.184  -3.671  (3,-1)   -0.068    0.037    -0.381   -0.008    0.090

 ( H     7   1.093 AU )   -0.993    0.038   -0.111
                                                      -0.036   -0.999   -0.025
                                                      -0.111   -0.021    0.994
 *******************************************************************************
 TTTTTTTTTTTTTTTTTTTTTTTTTTTTTT TLAP        TELAPSE        5.27 TCPU        5.24
 TTTTTTTTTTTTTTTTTTTTTTTTTTTTTT END         TELAPSE        5.27 TCPU        5.24
 EEEEEEEEEE TERMINATION  DATE 06 08 2025 TIME 17:51:24.2
