
         
 *******************************************************************************
 *                                                                             *
 *                               CRYSTAL17                                     *
 *                      public : 1.0.1 - Feb 1st, 2017                         *
 *                       HTTP://WWW.CRYSTAL.UNITO.IT                           *
 *                                                                             *
 *                              MAIN AUTHORS                                   *
 *                                                                             *
 *  R. DOVESI(1,11), V.R. SAUNDERS(2), C. ROETTI(1,11), R. ORLANDO(1,11),      *
 *  C.M. ZICOVICH-WILSON(1,3), F. PASCALE(4), B. CIVALLERI(1,11),              *
 *  K. DOLL(5), N.M. HARRISON(2,6), I.J. BUSH(7), Ph. D'ARCO(8),               *
 *  M. LLUNELL(9), M. CAUSA'(10), Y. NOEL(8), L. MASCHIO(1,11), A. ERBA(1,11)  *
 *  M. RE'RAT(14), S. CASASSA(1,11)                                            *
 *                                                                             *
 *        CONTRIBUTIONS TO THE CODE HAVE ALSO BEEN GIVEN BY                    *
 *                                                                             *
 *  M. FERRABONE(1,11), M. DE LA PIERRE(1,11), M. FERRERO(1,11),               *
 *  J. BAIMA(1,11), E. ALBANESE(1,11), M.F. PEINTINGER(12), R. BAST(13),       *
 *  B. KIRTMAN(15), V. LACIVITA(1,11), R. DEMICHELIS(1,16)                     *
 *  G. BRANDEBURG(17), S. SALUSTRO(1,11), G. SANSONE(1,11)                     *
 *  M.T. RUGGIERO(18)                                                          *
 *                                                                             *
 * (1) THEORETICAL CHEMISTRY GROUP - UNIVERSITA' DI TORINO - TORINO (ITALY)    *

 * (2) COMPUTATIONAL SCIENCE & ENGINEERING DEPARTMENT - STFC DARESBURY (UK)    *
 * (3) UNIVERSIDAD AUTONOMA DEL ESTADO DE MORELOS - CUERNAVACA (MEXICO)        *
 * (4) UNIVERSITE' DE LORRAINE - NANCY (FRANCE)                                *
 * (5) UNIVERSITAET STUTTGART- STUTTGART (GERMANY)                             *
 * (6) IMPERIAL COLLEGE - LONDON (UK)                                          *
 * (7) OXFORD E-RESEARCH CENTRE - OXFORD (UK)                                  *
 * (8) UPMC - SORBONNE UNIVERSITES - PARIS (FRANCE)                            *
 * (9) UNIVERSIDAD DE BARCELONA - BARCELONA (SPAIN)                            *
 *(10) UNIVERSITA' DI NAPOLI "FEDERICO II" - NAPOLI (ITALY)                    *
 *(11) NIS - NANOSTRUCTURED INTERFACES AND SURFACES - TORINO (ITALY)           *
 *(12) MPI FUER CHEMISCHE ENERGIEKONVERSION - MUELHEIM AN DER RUHR (GERMANY)   *
 *(13) UNIVERSITY OF TROMSO - TROMSO (NORWAY)                                  *
 *(14) UNIVERSITE' DE PAU ET DES PAYS DE L'ADOUR - PAU (FRANCE)                *
 *(15) UNIVERSITY OF CALIFORNIA SANTA BARBARA - SANTA BARBARA (USA)            *
 *(16) CURTIN UNIVERSITY - PERTH (AUSTRALIA)                                   *
 *(17) UNIVERSITY COLLEGE LONDON - LONDON (UK)                                 *
 *(18) CAMBRIDGE UNIVERSITY - CAMBRIDGE (UK)                                   *
 *                                                                             *
 *******************************************************************************
 EEEEEEEEEE STARTING  DATE 17 09 2022 TIME 11:48:16.2
 NH3 (geom. expt. NPD 2K) 6-31G(d,p)                                             

 CRYSTAL CALCULATION
 (INPUT ACCORDING TO THE INTERNATIONAL TABLES FOR X-RAY CRYSTALLOGRAPHY)
 CRYSTAL FAMILY                       :  CUBIC       
 CRYSTAL CLASS  (GROTH - 1921)        :  CUBIC TETRAHEDRAL-PENTAGONALDODECAHED

 SPACE GROUP (NONCENTROSYMMETRIC)     :  P 21 3          

 LATTICE PARAMETERS  (ANGSTROMS AND DEGREES) - CONVENTIONAL CELL
        A           B           C        ALPHA        BETA       GAMMA
     5.04800     5.04800     5.04800    90.00000    90.00000    90.00000


 NUMBER OF IRREDUCIBLE ATOMS IN THE CONVENTIONAL CELL:    2

 INPUT COORDINATES

 ATOM AT. N.              COORDINATES
   1   7     1.959005168248E-01  1.959005168248E-01  1.959005168248E-01
   2   1     3.514797245100E-01  2.731578767146E-01  9.193305407193E-02

 *******************************************************************************

 << INFORMATION >>: FROM NOW ON, ALL COORDINATES REFER TO THE PRIMITIVE CELL

 *******************************************************************************

 LATTICE PARAMETERS  (ANGSTROMS AND DEGREES) - PRIMITIVE CELL
       A          B          C        ALPHA      BETA     GAMMA        VOLUME
    5.04800    5.04800    5.04800    90.00000  90.00000  90.00000    128.634671

 COORDINATES OF THE EQUIVALENT ATOMS (FRACTIONAL UNITS)

 N. ATOM EQUIV AT. N.          X                  Y                  Z

   1   1   1    7 N     1.95900516825E-01  1.95900516825E-01  1.95900516825E-01
   2   1   2    7 N     3.04099483175E-01 -1.95900516825E-01 -3.04099483175E-01
   3   1   3    7 N    -3.04099483175E-01  3.04099483175E-01 -1.95900516825E-01
   4   1   4    7 N    -1.95900516825E-01 -3.04099483175E-01  3.04099483175E-01

   5   2   1    1 H     3.51479724510E-01  2.73157876715E-01  9.19330540719E-02
   6   2   2    1 H     1.48520275490E-01 -2.73157876715E-01 -4.08066945928E-01
   7   2   3    1 H    -1.48520275490E-01  2.26842123285E-01 -9.19330540719E-02
   8   2   4    1 H    -3.51479724510E-01 -2.26842123285E-01  4.08066945928E-01
   9   2   5    1 H     9.19330540719E-02  3.51479724510E-01  2.73157876715E-01
  10   2   6    1 H     2.73157876715E-01  9.19330540719E-02  3.51479724510E-01
  11   2   7    1 H     4.08066945928E-01 -3.51479724510E-01 -2.26842123285E-01
  12   2   8    1 H    -2.73157876715E-01 -4.08066945928E-01  1.48520275490E-01
  13   2   9    1 H    -4.08066945928E-01  1.48520275490E-01 -2.73157876715E-01
  14   2  10    1 H     2.26842123285E-01 -9.19330540719E-02 -1.48520275490E-01
  15   2  11    1 H    -9.19330540719E-02 -1.48520275490E-01  2.26842123285E-01
  16   2  12    1 H    -2.26842123285E-01  4.08066945928E-01 -3.51479724510E-01

 NUMBER OF SYMMETRY OPERATORS         :   12
 *******************************************************************************
 * GEOMETRY EDITING - INPUT COORDINATES ARE GIVEN IN ANGSTROM         
 *******************************************************************************

 GEOMETRY NOW FULLY CONSISTENT WITH THE GROUP

 GCALCO - MAX INDICES DIRECT LATTICE VECTOR    14    14    14
 NO.OF VECTORS CREATED 6999 STARS  120 RMAX   113.27336 BOHR

 GEOMETRY FOR WAVE FUNCTION - DIMENSIONALITY OF THE SYSTEM    3
 (NON PERIODIC DIRECTION: LATTICE PARAMETER FORMALLY SET TO 500)
 *******************************************************************************
 LATTICE PARAMETERS (ANGSTROMS AND DEGREES) - BOHR = 0.5291772083 ANGSTROM
 PRIMITIVE CELL - CENTRING CODE 1/0 VOLUME=   128.634671 - DENSITY  0.879 g/cm^3
         A              B              C           ALPHA      BETA       GAMMA 
     5.04800000     5.04800000     5.04800000    90.000000  90.000000  90.000000
 *******************************************************************************
 ATOMS IN THE ASYMMETRIC UNIT    2 - ATOMS IN THE UNIT CELL:   16
     ATOM                 X/A                 Y/B                 Z/C    
 *******************************************************************************
      1 T   7 N     1.959005168248E-01  1.959005168248E-01  1.959005168248E-01
      2 F   7 N     3.040994831752E-01 -1.959005168248E-01 -3.040994831752E-01
      3 F   7 N    -3.040994831752E-01  3.040994831752E-01 -1.959005168248E-01
      4 F   7 N    -1.959005168248E-01 -3.040994831752E-01  3.040994831752E-01
      5 T   1 H     3.514797245100E-01  2.731578767146E-01  9.193305407193E-02
      6 F   1 H     1.485202754900E-01 -2.731578767146E-01 -4.080669459281E-01
      7 F   1 H    -1.485202754900E-01  2.268421232854E-01 -9.193305407193E-02
      8 F   1 H    -3.514797245100E-01 -2.268421232854E-01  4.080669459281E-01
      9 F   1 H     9.193305407193E-02  3.514797245100E-01  2.731578767146E-01
     10 F   1 H     2.731578767146E-01  9.193305407193E-02  3.514797245100E-01
     11 F   1 H     4.080669459281E-01 -3.514797245100E-01 -2.268421232854E-01
     12 F   1 H    -2.731578767146E-01 -4.080669459281E-01  1.485202754900E-01
     13 F   1 H    -4.080669459281E-01  1.485202754900E-01 -2.731578767146E-01
     14 F   1 H     2.268421232854E-01 -9.193305407193E-02 -1.485202754900E-01
     15 F   1 H    -9.193305407193E-02 -1.485202754900E-01  2.268421232854E-01
     16 F   1 H    -2.268421232854E-01  4.080669459281E-01 -3.514797245100E-01

 T = ATOM BELONGING TO THE ASYMMETRIC UNIT

 ****   12 SYMMOPS - TRANSLATORS IN FRACTIONAL UNITS
 **** MATRICES AND TRANSLATORS IN THE CRYSTALLOGRAPHIC REFERENCE FRAME
   V INV                    ROTATION MATRICES                   TRANSLATORS
   1   1  1.00  0.00  0.00  0.00  1.00  0.00  0.00  0.00  1.00  0.00  0.00  0.00
   2   2 -1.00  0.00  0.00  0.00 -1.00  0.00  0.00  0.00  1.00  0.50  0.00  0.50
   3   3  1.00  0.00  0.00  0.00 -1.00  0.00  0.00  0.00 -1.00  0.50  0.50  0.00
   4   4 -1.00  0.00  0.00  0.00  1.00  0.00  0.00  0.00 -1.00  0.00  0.50  0.50
   5   6  0.00  0.00  1.00  1.00  0.00  0.00  0.00  1.00  0.00  0.00  0.00  0.00
   6   5  0.00  1.00  0.00  0.00  0.00  1.00  1.00  0.00  0.00  0.00  0.00  0.00
   7   8  0.00  0.00 -1.00 -1.00  0.00  0.00  0.00  1.00  0.00  0.50  0.00  0.50
   8   7  0.00 -1.00  0.00  0.00  0.00  1.00 -1.00  0.00  0.00  0.00  0.50  0.50
   9  10  0.00  0.00  1.00 -1.00  0.00  0.00  0.00 -1.00  0.00  0.50  0.50  0.00
  10   9  0.00 -1.00  0.00  0.00  0.00 -1.00  1.00  0.00  0.00  0.50  0.00  0.50
  11  12  0.00  0.00 -1.00  1.00  0.00  0.00  0.00 -1.00  0.00  0.00  0.50  0.50
  12  11  0.00  1.00  0.00  0.00  0.00 -1.00 -1.00  0.00  0.00  0.50  0.50  0.00

 DIRECT LATTICE VECTORS CARTESIAN COMPONENTS (ANGSTROM)
          X                    Y                    Z
   0.504800000000E+01   0.000000000000E+00   0.000000000000E+00
   0.000000000000E+00   0.504800000000E+01   0.000000000000E+00
   0.000000000000E+00   0.000000000000E+00   0.504800000000E+01


 CARTESIAN COORDINATES - PRIMITIVE CELL
 *******************************************************************************
 *      ATOM          X(ANGSTROM)         Y(ANGSTROM)         Z(ANGSTROM)
 *******************************************************************************
    1     7 N     9.889058089316E-01  9.889058089316E-01  9.889058089316E-01
    2     7 N     1.535094191068E+00 -9.889058089316E-01 -1.535094191068E+00
    3     7 N    -1.535094191068E+00  1.535094191068E+00 -9.889058089316E-01
    4     7 N    -9.889058089316E-01 -1.535094191068E+00  1.535094191068E+00
    5     1 H     1.774269649326E+00  1.378900961655E+00  4.640780569551E-01
    6     1 H     7.497303506735E-01 -1.378900961655E+00 -2.059921943045E+00
    7     1 H    -7.497303506735E-01  1.145099038345E+00 -4.640780569551E-01
    8     1 H    -1.774269649326E+00 -1.145099038345E+00  2.059921943045E+00
    9     1 H     4.640780569551E-01  1.774269649326E+00  1.378900961655E+00
   10     1 H     1.378900961655E+00  4.640780569551E-01  1.774269649326E+00
   11     1 H     2.059921943045E+00 -1.774269649326E+00 -1.145099038345E+00
   12     1 H    -1.378900961655E+00 -2.059921943045E+00  7.497303506735E-01
   13     1 H    -2.059921943045E+00  7.497303506735E-01 -1.378900961655E+00
   14     1 H     1.145099038345E+00 -4.640780569551E-01 -7.497303506735E-01
   15     1 H    -4.640780569551E-01 -7.497303506735E-01  1.145099038345E+00
   16     1 H    -1.145099038345E+00  2.059921943045E+00 -1.774269649326E+00

 *******************************************************************************
 STARTING BASIS SET HANDLING 
 *******************************************************************************

 Loading internal basis set: DEF2-MSVP           

 Please cite in your publication:
 Fully Optimized Contracted Gaussian Basis Sets for Atoms Li to Kr. A. Schäfer, 
 H. Horn and R. Ahlrichs; J. Chem. Phys. 97, 2571 (1992).                       
                                                                                
                    
 S. Grimme, J. G. Brandenburg, C. Bannwarth, and A. Hansen, J. Chem. Phys., 143,
  054107 (2015).                                                                
                                                                                
                    

 *******************************************************************************
 LOCAL ATOMIC FUNCTIONS BASIS SET
 *******************************************************************************
   ATOM   X(AU)   Y(AU)   Z(AU)  N. TYPE  EXPONENT  S COEF   P COEF   D/F/G COEF
 *******************************************************************************
   1 N    1.869   1.869   1.869
                                  1 S  
                                         5.072E+03 1.707E-03 0.000E+00 0.000E+00
                                         7.614E+02 1.309E-02 0.000E+00 0.000E+00
                                         1.732E+02 6.510E-02 0.000E+00 0.000E+00
                                         4.867E+01 2.305E-01 0.000E+00 0.000E+00
                                         1.533E+01 5.330E-01 0.000E+00 0.000E+00
                                  2 S  
                                         5.019E+00 1.000E+00 0.000E+00 0.000E+00
                                  3 S  
                                         8.355E-01 1.000E+00 0.000E+00 0.000E+00
                                  4 S  
                                         2.463E-01 1.000E+00 0.000E+00 0.000E+00
                           5-     7 P  
                                         1.355E+01 0.000E+00 4.063E-02 0.000E+00
                                         2.918E+00 0.000E+00 2.209E-01 0.000E+00
                                         7.983E-01 0.000E+00 5.186E-01 0.000E+00
                           8-    10 P  
                                         2.190E-01 0.000E+00 1.000E+00 0.000E+00
                          11-    15 D  
                                         8.000E-01 0.000E+00 0.000E+00 1.000E+00
   2 N    2.901  -1.869  -2.901
   3 N   -2.901   2.901  -1.869
   4 N   -1.869  -2.901   2.901
   5 H    3.353   2.606   0.877
                                 61 S  
                                         1.874E+01 1.968E-02 0.000E+00 0.000E+00
                                         2.826E+00 1.380E-01 0.000E+00 0.000E+00
                                         6.401E-01 4.783E-01 0.000E+00 0.000E+00
                                 62 S  
                                         1.756E-01 1.000E+00 0.000E+00 0.000E+00
   6 H    1.417  -2.606  -3.893
   7 H   -1.417   2.164  -0.877
   8 H   -3.353  -2.164   3.893
   9 H    0.877   3.353   2.606
  10 H    2.606   0.877   3.353
  11 H    3.893  -3.353  -2.164
  12 H   -2.606  -3.893   1.417
  13 H   -3.893   1.417  -2.606
  14 H    2.164  -0.877  -1.417
  15 H   -0.877  -1.417   2.164
  16 H   -2.164   3.893  -3.353

 *******************************************************************************
 FINISHED BASIS SET HANDLING 
 *******************************************************************************

 INFORMATION **** SET_MPP **** PCRYSTAL CALCULATION
 INFORMATION **** READM2 **** NEW DEFAULT: FOCK/KS MATRIX MIXING SET TO 30 %
 INFORMATION **** READM2 **** NEW DEFAULT: FULL DIRECT SCF MODE
 INFORMATION **** READM2 **** NEW DEFAULT: COULOMB BIPOLAR BUFFER SET TO 32 Mb
 INFORMATION **** READM2 **** NEW DEFAULT: EXCHANGE BIPOLAR BUFFER SET TO 32 Mb

 *******************************************************************************
 NEW DEFAULT: DFT INTEGRATION GRID INCREASED TO XLGRID
 NEW DEFAULT: DIIS ACCELERATOR ACTIVE
 USE KEYWORD NODIIS TO TURN IT OFF
 *******************************************************************************

 INFORMATION **** RDDFTP **** PBEh-3c calculation
 INFORMATION **** RDDFTP **** PBEh hybrid functional combined with D3 and gCP

PLEASE CITE:
(1) PBEh-3c Reference
 S. Grimme, J. G. Brandenburg, C. Bannwarth, and A. Hansen, 
 J. Chem. Phys. 143, 054107 (2015)
(2) DFT-D3 Reference
 S. Grimme, J. Antony, S. Ehrlich, and H. Krieg, J. Chem. Phys. 132, 154104 (2010)
(3) gCP Reference
 H. Kruse and S. Grimme J. Chem. Phys, 136, 154101 (2012)
 J. G. Brandenburg, M. Alessio, B. Civalleri, M. F. Peintinger
 T. Bredow, and S. Grimme, J. Phys. Chem. A, 117, 9282 (2013) 

 WARNING **** RDDFTP **** PBEh-3c has to be combined with def2-mSVP basis set
 INFORMATION **** DFTD3_INPUT **** PERFORM DISPERSION CORRECTION DFT-D3(BJ) IN THE BECKE-JOHNSON DAMPING SCHEME

 PLEASE CITE:
 (1) DFT-D3 Reference
  S. Grimme, J. Antony, S. Ehrlich, and H. Krieg, J. Chem. Phys. 132 (2010), 154104
 (2) BJ-Damping Reference
  S. Grimme, S. Ehrlich, and L. Goerigk, J. Comput. Chem. 32 (2011), 1456-1465
 (3) General DFT-D Review
  S. Grimme, A. Hansen, J. G. Brandenburg, and C. Bannwarth,
  Chem. Rev. 116 (2016), 5105-5154

 INFORMATION **** GCP_INPUT **** PERFORM GEOMETRIC BSSE CORRECTION GCP

 PLEASE CITE
 (1) GCP Reference:
  H. Kruse and S. Grimme J. Chem. Phys, 2012,136,154101
 (2) GCP for Periodic Systems
  J. G. Brandenburg, M. Alessio, B. Civalleri, M. F. Peintinger, T. Bredow, and S.Grimme,
  J. Phys. Chem. A, 2013,117,9282

 WARNING **** GCP_INPUT **** FUNCTIONAL/BASIS COMBINATION AND GCPMETHOD NOT IDENTICAL
 WARNING **** GCP_INPUT **** TAKE GCPMETHOD FOR PARAMETER SETUP
 gcpmethodpbeh3c                   
 INFORMATION **** TOLINTEG **** COULOMB AND EXCHANGE SERIES TOLERANCES MODIFIED
 INFORMATION **** DIIS **** DIIS FOR SCF ACTIVE
 INFORMATION **** DIIS **** LEVEL SHIFTER DISABLED
 *******************************************************************************
 N. OF ATOMS PER CELL        16  COULOMB OVERLAP TOL         (T1) 10**   -7
 NUMBER OF SHELLS            52  COULOMB PENETRATION TOL     (T2) 10**   -7
 NUMBER OF AO                84  EXCHANGE OVERLAP TOL        (T3) 10**   -7
 N. OF ELECTRONS PER CELL    40  EXCHANGE PSEUDO OVP (F(G))  (T4) 10**   -7
 CORE ELECTRONS PER CELL      8  EXCHANGE PSEUDO OVP (P(G))  (T5) 10**  -16
 N. OF SYMMETRY OPERATORS    12  POLE ORDER IN MONO ZONE                  4
 *******************************************************************************
 TYPE OF CALCULATION :  RESTRICTED CLOSED SHELL
 KOHN-SHAM HAMILTONIAN

 (EXCHANGE)[CORRELATION] FUNCTIONAL:(PBEh-3c)[PBEh-3c]


 HYBRID EXCHANGE - PERCENTAGE OF FOCK EXCHANGE    42.0000

 CAPPA:IS1  6;IS2  6;IS3  6; K PTS MONK NET  24; SYMMOPS:K SPACE  24;G SPACE  12

 *******************************************************************************
 MAX NUMBER OF SCF CYCLES      50  CONVERGENCE ON DELTAP        10**-16
 WEIGHT OF F(I) IN F(I+1)      30% CONVERGENCE ON ENERGY        10**- 6
 SHRINK. FACT.(MONKH.)    6  6  6  NUMBER OF K POINTS IN THE IBZ     24
 SHRINKING FACTOR(GILAT NET)    6  NUMBER OF K POINTS(GILAT NET)     24
 *******************************************************************************
 *** K POINTS COORDINATES (OBLIQUE COORDINATES IN UNITS OF IS =  6)
   1-R(  0  0  0)   2-C(  1  0  0)   3-C(  2  0  0)   4-R(  3  0  0)
   5-C(  1  1  0)   6-C(  2  1  0)   7-C(  3  1  0)   8-C(  1  2  0)
   9-C(  2  2  0)  10-C(  3  2  0)  11-C(  1  3  0)  12-C(  2  3  0)
  13-R(  3  3  0)  14-C(  1  1  1)  15-C(  2  1  1)  16-C(  3  1  1)
  17-C(  2  2  1)  18-C(  3  2  1)  19-C(  2  3  1)  20-C(  3  3  1)
  21-C(  2  2  2)  22-C(  3  2  2)  23-C(  3  3  2)  24-R(  3  3  3)

 DIRECT LATTICE VECTORS COMPON. (A.U.)     RECIP. LATTICE VECTORS COMPON. (A.U.) 
        X            Y            Z              X            Y            Z
    9.5393375    0.0000000    0.0000000      0.6586606    0.0000000    0.0000000
    0.0000000    9.5393375    0.0000000      0.0000000    0.6586606    0.0000000
    0.0000000    0.0000000    9.5393375      0.0000000    0.0000000    0.6586606

 DISK SPACE FOR EIGENVECTORS (FTN 10)      310464 REALS

 SYMMETRY ADAPTION OF THE BLOCH FUNCTIONS ENABLED
 TTTTTTTTTTTTTTTTTTTTTTTTTTTTTT gordsh1     TELAPSE        0.01 TCPU        0.01

 MATRIX SIZE: P(G)   88892, F(G)   13260, P(G) IRR    4217, F(G) IRR    1302
 MAX G-VECTOR INDEX FOR 1- AND 2-ELECTRON INTEGRALS 119

 TTTTTTTTTTTTTTTTTTTTTTTTTTTTTT INPUT       TELAPSE        0.01 TCPU        0.01

 NEIGHBORS OF THE NON-EQUIVALENT ATOMS

 N = NUMBER OF NEIGHBORS AT DISTANCE R
    ATOM  N     R/ANG      R/AU   NEIGHBORS (ATOM LABELS AND CELL INDICES)
   1 N    3     1.0219     1.9312    5 H    0 0 0    9 H    0 0 0   10 H    0 0 0
   1 N    3     2.2712     4.2920    7 H    0 0 0   14 H    0 0 0   15 H    0 0 0
   1 N    3     3.1081     5.8735    6 H    0 0 1   12 H    0 1 0   13 H    1 0 0
   1 N    6     3.2528     6.1469    2 N    0 0 0    2 N    0 0 1    3 N    0 0 0
                                     3 N    1 0 0    4 N    0 0 0    4 N    0 1 0
   1 N    3     3.3048     6.2451    8 H    1 0 0   11 H    0 1 0   16 H    0 0 1
   1 N    3     3.3522     6.3348    6 H    0 1 1   12 H    1 1 0   13 H    1 0 1

   5 H    1     1.0219     1.9312    1 N    0 0 0
   5 H    2     1.6462     3.1108    9 H    0 0 0   10 H    0 0 0
   5 H    1     2.2712     4.2920    3 N    1 0 0
   5 H    2     2.2947     4.3364   13 H    1 0 0   14 H    0 0 0
   5 H    2     2.5023     4.7286   11 H    0 1 0   12 H    1 1 0
   5 H    2     2.6994     5.1011    7 H    0 0 0    7 H    1 0 0


 SYMMETRY ALLOWED INTERNAL DEGREE(S) OF FREEDOM:   4
 TTTTTTTTTTTTTTTTTTTTTTTTTTTTTT SYMM        TELAPSE        0.01 TCPU        0.01
 TTTTTTTTTTTTTTTTTTTTTTTTTTTTTT INT_SCREEN  TELAPSE        0.02 TCPU        0.01
 INFORMATION **** EXCBUF **** EXCH. BIPO BUFFER: WORDS USED =      209934

 DFT PARAMETERS

     ATOM       ELECTRONS   NET CHARGE   R(ANGSTROM)
   1   7  N       7.0000      0.0000     0.74000000
   5   1  H       1.0000      0.0000     1.11000000

 SIZE OF GRID=      28288
 TTTTTTTTTTTTTTTTTTTTTTTTTTTTTT MAKE_GRID2  TELAPSE        1.22 TCPU        1.22
 BECKE WEIGHT FUNCTION
 RADSAFE =     2.00
 TOLERANCES - DENSITY:10**- 6; POTENTIAL:10**- 9; GRID WGT:10**-14

 RADIAL INTEGRATION  - INTERVALS (POINTS,UPPER LIMIT):            1( 75,  4.0*R)

 ANGULAR INTEGRATION - INTERVALS (ACCURACY LEVEL [N. POINTS] UPPER LIMIT):
  1(  4[  86]   0.2)  2(  8[ 194]   0.5)  3( 12[ 350]   0.9)  4( 16[ 974]   3.5)
  5( 12[ 350]9999.0)
 TTTTTTTTTTTTTTTTTTTTTTTTTTTTTT INT_CALC    TELAPSE        1.23 TCPU        1.23
 EEEEEEEEEE INT_CALC TERMINATION  DATE 17 09 2022 TIME 11:48:17.5

 *******************************************************************************
 NH3 (geom. expt. NPD 2K) 6-31G(d,p)                                             
 CRYSTAL - SCF - TYPE OF CALCULATION :  RESTRICTED CLOSED SHELL
 *******************************************************************************

 CAPPA:IS1  6;IS2  6;IS3  6; K PTS MONK NET  24; SYMMOPS:K SPACE  24;G SPACE  12

 TTTTTTTTTTTTTTTTTTTTTTTTTTTTTT SDIK        TELAPSE        1.24 TCPU        1.24

 AAAAAAAAAAAAAAAAAAAAAAAAAAAAAAAAAAAAAAAAAAAAAAAAAAAAAAAAAAAAAAAAAAAAAAAAAAAAAAA
         ATOMIC WAVEFUNCTION(S)


 NUCLEAR CHARGE  7.0  SYMMETRY SPECIES            S    P
 N. ELECTRONS    7.0  NUMBER OF PRIMITIVE GTOS    8    4
                      NUMBER OF CONTRACTED GTOS   4    2
                      NUMBER OF CLOSED SHELLS     2    0
                      OPEN SHELL OCCUPATION       0    3

  ZNUC SCFIT  TOTAL HF ENERGY   KINETIC ENERGY   VIRIAL THEOREM ACCURACY
   7.0   9   -5.437948210E+01  5.437948297E+01 -1.999999984E+00  1.2E-06

 NUCLEAR CHARGE  1.0  SYMMETRY SPECIES            S
 N. ELECTRONS    1.0  NUMBER OF PRIMITIVE GTOS    4
                      NUMBER OF CONTRACTED GTOS   2
                      NUMBER OF CLOSED SHELLS     0
                      OPEN SHELL OCCUPATION       1

  ZNUC SCFIT  TOTAL HF ENERGY   KINETIC ENERGY   VIRIAL THEOREM ACCURACY
   1.0   1   -4.977266687E-01  5.190767460E-01 -1.958869132E+00  1.8E-16

 AAAAAAAAAAAAAAAAAAAAAAAAAAAAAAAAAAAAAAAAAAAAAAAAAAAAAAAAAAAAAAAAAAAAAAAAAAAAAAA

 CHARGE NORMALIZATION FACTOR   1.00000000
 TOTAL ATOMIC CHARGES:
   7.0000000   7.0000000   7.0000000   7.0000000   1.0000000   1.0000000
   1.0000000   1.0000000   1.0000000   1.0000000   1.0000000   1.0000000
   1.0000000   1.0000000   1.0000000   1.0000000
 TTTTTTTTTTTTTTTTTTTTTTTTTTTTTT MOQGAD      TELAPSE        1.25 TCPU        1.25
 TTTTTTTTTTTTTTTTTTTTTTTTTTTTTT SHELLXN     TELAPSE        6.36 TCPU        6.25
 TTTTTTTTTTTTTTTTTTTTTTTTTTTTTT MONMO3      TELAPSE        6.43 TCPU        6.31
 NUMERICALLY INTEGRATED DENSITY     40.0000005452
 TTTTTTTTTTTTTTTTTTTTTTTTTTTTTT NUMDFT      TELAPSE        6.75 TCPU        6.63
 CYC   0 ETOT(AU) -2.258710594974E+02 DETOT -2.26E+02 tst  0.00E+00 PX  1.00E+00
 TTTTTTTTTTTTTTTTTTTTTTTTTTTTTT DIIS        TELAPSE        6.75 TCPU        6.64
 TTTTTTTTTTTTTTTTTTTTTTTTTTTTTT FDIK        TELAPSE        6.82 TCPU        6.71
 INSULATING STATE
 TOP OF VALENCE BANDS -    BAND     20; K    1; EIG -3.5271190E-01 AU
 BOTTOM OF VIRTUAL BANDS - BAND     21; K    1; EIG -9.1359314E-02 AU
 DIRECT ENERGY BAND GAP:   7.1118 eV
 TTTTTTTTTTTTTTTTTTTTTTTTTTTTTT PDIG        TELAPSE        6.84 TCPU        6.72
 CHARGE NORMALIZATION FACTOR   1.00000000
 TOTAL ATOMIC CHARGES:
   8.3118537   8.3118537   8.3118537   8.3118537   0.5627154   0.5627154
   0.5627154   0.5627154   0.5627154   0.5627154   0.5627154   0.5627154
   0.5627154   0.5627154   0.5627154   0.5627154
 TTTTTTTTTTTTTTTTTTTTTTTTTTTTTT MOQGAD      TELAPSE        6.85 TCPU        6.73
 TTTTTTTTTTTTTTTTTTTTTTTTTTTTTT SHELLXN     TELAPSE       12.00 TCPU       11.77
 TTTTTTTTTTTTTTTTTTTTTTTTTTTTTT MONMO3      TELAPSE       12.06 TCPU       11.83
 NUMERICALLY INTEGRATED DENSITY     39.9999983571
 TTTTTTTTTTTTTTTTTTTTTTTTTTTTTT NUMDFT      TELAPSE       12.74 TCPU       12.51
 CYC   1 ETOT(AU) -2.256834724271E+02 DETOT  1.88E-01 tst  0.00E+00 PX  1.00E+00
 TTTTTTTTTTTTTTTTTTTTTTTTTTTTTT DIIS        TELAPSE       12.75 TCPU       12.52
 DIIS TEST: 0.42779E+00 AT SCF   CYCLE   1 - MIX   30 %
 TTTTTTTTTTTTTTTTTTTTTTTTTTTTTT FDIK        TELAPSE       12.82 TCPU       12.55
 INSULATING STATE
 TOP OF VALENCE BANDS -    BAND     20; K    1; EIG -2.8725873E-01 AU
 BOTTOM OF VIRTUAL BANDS - BAND     21; K    1; EIG -2.2780013E-02 AU
 DIRECT ENERGY BAND GAP:   7.1968 eV
 TTTTTTTTTTTTTTTTTTTTTTTTTTTTTT PDIG        TELAPSE       12.83 TCPU       12.57
 CHARGE NORMALIZATION FACTOR   1.00000000
 TOTAL ATOMIC CHARGES:
   7.9998069   7.9998069   7.9998069   7.9998069   0.6667310   0.6667310
   0.6667310   0.6667310   0.6667310   0.6667310   0.6667310   0.6667310
   0.6667310   0.6667310   0.6667310   0.6667310
 TTTTTTTTTTTTTTTTTTTTTTTTTTTTTT MOQGAD      TELAPSE       12.84 TCPU       12.58
 TTTTTTTTTTTTTTTTTTTTTTTTTTTTTT SHELLXN     TELAPSE       17.99 TCPU       17.61
 TTTTTTTTTTTTTTTTTTTTTTTTTTTTTT MONMO3      TELAPSE       18.08 TCPU       17.69
 NUMERICALLY INTEGRATED DENSITY     39.9999925288
 TTTTTTTTTTTTTTTTTTTTTTTTTTTTTT NUMDFT      TELAPSE       18.98 TCPU       18.50
 CYC   2 ETOT(AU) -2.257772006006E+02 DETOT -9.37E-02 tst  2.68E-03 PX  1.13E-01
 TTTTTTTTTTTTTTTTTTTTTTTTTTTTTT DIIS        TELAPSE       18.99 TCPU       18.50
 DIIS TEST: 0.71364E-01 AT SCF   CYCLE   2 - DIIS ACTIVE - HISTORY:     2 CYCLES
 TTTTTTTTTTTTTTTTTTTTTTTTTTTTTT FDIK        TELAPSE       19.06 TCPU       18.54
 INSULATING STATE
 TOP OF VALENCE BANDS -    BAND     20; K    1; EIG -3.3336028E-01 AU
 BOTTOM OF VIRTUAL BANDS - BAND     21; K    1; EIG -2.0748060E-02 AU
 DIRECT ENERGY BAND GAP:   8.5066 eV
 TTTTTTTTTTTTTTTTTTTTTTTTTTTTTT PDIG        TELAPSE       19.08 TCPU       18.56
 CHARGE NORMALIZATION FACTOR   1.00000000
 TOTAL ATOMIC CHARGES:
   8.0961943   8.0961943   8.0961943   8.0961943   0.6346019   0.6346019
   0.6346019   0.6346019   0.6346019   0.6346019   0.6346019   0.6346019
   0.6346019   0.6346019   0.6346019   0.6346019
 TTTTTTTTTTTTTTTTTTTTTTTTTTTTTT MOQGAD      TELAPSE       19.09 TCPU       18.57
 TTTTTTTTTTTTTTTTTTTTTTTTTTTTTT SHELLXN     TELAPSE       24.25 TCPU       23.63
 TTTTTTTTTTTTTTTTTTTTTTTTTTTTTT MONMO3      TELAPSE       24.32 TCPU       23.70
 NUMERICALLY INTEGRATED DENSITY     39.9999939878
 TTTTTTTTTTTTTTTTTTTTTTTTTTTTTT NUMDFT      TELAPSE       25.00 TCPU       24.37
 CYC   3 ETOT(AU) -2.257953878900E+02 DETOT -1.82E-02 tst  3.04E-04 PX  3.42E-02
 TTTTTTTTTTTTTTTTTTTTTTTTTTTTTT DIIS        TELAPSE       25.00 TCPU       24.38
 DIIS TEST: 0.47796E-03 AT SCF   CYCLE   3 - DIIS ACTIVE - HISTORY:     3 CYCLES
 TTTTTTTTTTTTTTTTTTTTTTTTTTTTTT FDIK        TELAPSE       25.03 TCPU       24.41
 INSULATING STATE
 TOP OF VALENCE BANDS -    BAND     20; K    1; EIG -3.3072425E-01 AU
 BOTTOM OF VIRTUAL BANDS - BAND     21; K    1; EIG -1.7320522E-02 AU
 DIRECT ENERGY BAND GAP:   8.5282 eV
 TTTTTTTTTTTTTTTTTTTTTTTTTTTTTT PDIG        TELAPSE       25.05 TCPU       24.43
 CHARGE NORMALIZATION FACTOR   1.00000000
 TOTAL ATOMIC CHARGES:
   8.0902723   8.0902723   8.0902723   8.0902723   0.6365759   0.6365759
   0.6365759   0.6365759   0.6365759   0.6365759   0.6365759   0.6365759
   0.6365759   0.6365759   0.6365759   0.6365759
 TTTTTTTTTTTTTTTTTTTTTTTTTTTTTT MOQGAD      TELAPSE       25.06 TCPU       24.44
 TTTTTTTTTTTTTTTTTTTTTTTTTTTTTT SHELLXN     TELAPSE       30.20 TCPU       29.47
 TTTTTTTTTTTTTTTTTTTTTTTTTTTTTT MONMO3      TELAPSE       30.26 TCPU       29.54
 NUMERICALLY INTEGRATED DENSITY     39.9999940885
 TTTTTTTTTTTTTTTTTTTTTTTTTTTTTT NUMDFT      TELAPSE       30.94 TCPU       30.22
 CYC   4 ETOT(AU) -2.257954700500E+02 DETOT -8.22E-05 tst  2.62E-06 PX  1.90E-03
 TTTTTTTTTTTTTTTTTTTTTTTTTTTTTT DIIS        TELAPSE       30.95 TCPU       30.22
 DIIS TEST: 0.10876E-04 AT SCF   CYCLE   4 - DIIS ACTIVE - HISTORY:     4 CYCLES
 TTTTTTTTTTTTTTTTTTTTTTTTTTTTTT FDIK        TELAPSE       30.98 TCPU       30.26
 INSULATING STATE
 TOP OF VALENCE BANDS -    BAND     20; K    1; EIG -3.3053297E-01 AU
 BOTTOM OF VIRTUAL BANDS - BAND     21; K    1; EIG -1.6963168E-02 AU
 DIRECT ENERGY BAND GAP:   8.5327 eV
 TTTTTTTTTTTTTTTTTTTTTTTTTTTTTT PDIG        TELAPSE       31.00 TCPU       30.27
 CHARGE NORMALIZATION FACTOR   1.00000000
 TOTAL ATOMIC CHARGES:
   8.0908077   8.0908077   8.0908077   8.0908077   0.6363974   0.6363974
   0.6363974   0.6363974   0.6363974   0.6363974   0.6363974   0.6363974
   0.6363974   0.6363974   0.6363974   0.6363974
 TTTTTTTTTTTTTTTTTTTTTTTTTTTTTT MOQGAD      TELAPSE       31.00 TCPU       30.28
 TTTTTTTTTTTTTTTTTTTTTTTTTTTTTT SHELLXN     TELAPSE       36.14 TCPU       35.29
 TTTTTTTTTTTTTTTTTTTTTTTTTTTTTT MONMO3      TELAPSE       36.21 TCPU       35.36
 NUMERICALLY INTEGRATED DENSITY     39.9999940688
 TTTTTTTTTTTTTTTTTTTTTTTTTTTTTT NUMDFT      TELAPSE       36.89 TCPU       36.04
 CYC   5 ETOT(AU) -2.257954724132E+02 DETOT -2.36E-06 tst  6.95E-08 PX  3.03E-04
 TTTTTTTTTTTTTTTTTTTTTTTTTTTTTT DIIS        TELAPSE       36.89 TCPU       36.05
 DIIS TEST: 0.15107E-06 AT SCF   CYCLE   5 - DIIS ACTIVE - HISTORY:     5 CYCLES
 TTTTTTTTTTTTTTTTTTTTTTTTTTTTTT FDIK        TELAPSE       36.93 TCPU       36.08
 INSULATING STATE
 TOP OF VALENCE BANDS -    BAND     20; K    1; EIG -3.3049349E-01 AU
 BOTTOM OF VIRTUAL BANDS - BAND     21; K    1; EIG -1.6904075E-02 AU
 DIRECT ENERGY BAND GAP:   8.5332 eV
 TTTTTTTTTTTTTTTTTTTTTTTTTTTTTT PDIG        TELAPSE       36.94 TCPU       36.10
 CHARGE NORMALIZATION FACTOR   1.00000000
 TOTAL ATOMIC CHARGES:
   8.0907074   8.0907074   8.0907074   8.0907074   0.6364309   0.6364309
   0.6364309   0.6364309   0.6364309   0.6364309   0.6364309   0.6364309
   0.6364309   0.6364309   0.6364309   0.6364309
 TTTTTTTTTTTTTTTTTTTTTTTTTTTTTT MOQGAD      TELAPSE       36.95 TCPU       36.10
 TTTTTTTTTTTTTTTTTTTTTTTTTTTTTT SHELLXN     TELAPSE       42.11 TCPU       41.13
 TTTTTTTTTTTTTTTTTTTTTTTTTTTTTT MONMO3      TELAPSE       42.17 TCPU       41.20
 NUMERICALLY INTEGRATED DENSITY     39.9999940674
 TTTTTTTTTTTTTTTTTTTTTTTTTTTTTT NUMDFT      TELAPSE       42.85 TCPU       41.87
 CYC   6 ETOT(AU) -2.257954724989E+02 DETOT -8.56E-08 tst  4.99E-09 PX  6.51E-05
 TTTTTTTTTTTTTTTTTTTTTTTTTTTTTT DIIS        TELAPSE       42.85 TCPU       41.88
 DIIS TEST: 0.21980E-08 AT SCF   CYCLE   6 - DIIS ACTIVE - HISTORY:     6 CYCLES
 TTTTTTTTTTTTTTTTTTTTTTTTTTTTTT FDIK        TELAPSE       42.89 TCPU       41.91
 INSULATING STATE
 TOP OF VALENCE BANDS -    BAND     20; K    1; EIG -3.3049544E-01 AU
 BOTTOM OF VIRTUAL BANDS - BAND     21; K    1; EIG -1.6901186E-02 AU
 DIRECT ENERGY BAND GAP:   8.5333 eV
 TTTTTTTTTTTTTTTTTTTTTTTTTTTTTT PDIG        TELAPSE       42.90 TCPU       41.93
 CHARGE NORMALIZATION FACTOR   1.00000000
 TOTAL ATOMIC CHARGES:
   8.0907007   8.0907007   8.0907007   8.0907007   0.6364331   0.6364331
   0.6364331   0.6364331   0.6364331   0.6364331   0.6364331   0.6364331
   0.6364331   0.6364331   0.6364331   0.6364331
 TTTTTTTTTTTTTTTTTTTTTTTTTTTTTT MOQGAD      TELAPSE       42.91 TCPU       41.94
 TTTTTTTTTTTTTTTTTTTTTTTTTTTTTT SHELLXN     TELAPSE       48.08 TCPU       46.97
 +++ ENERGIES IN A.U. +++
 ::: EXT EL-POLE                                  -3.8036495756373E+02
 ::: EXT EL-SPHEROPOLE                             3.7602207638699E+00
 ::: BIELET ZONE E-E                               4.3586958115031E+02
 ::: TOTAL E-E                                     5.9264844350456E+01
 ::: TOTAL E-N + N-E                              -4.4700538502817E+02
 ::: TOTAL N-N                                    -4.3262371585975E+01
 ::: KINETIC ENERGY                                2.2403197197061E+02
 ::: PSEUDO TOTAL   ENERGY                        -2.0697094029309E+02
 ::: VIRIAL COEFFICIENT                            1.0395844928006E+00
 TTTTTTTTTTTTTTTTTTTTTTTTTTTTTT MONMO3      TELAPSE       48.17 TCPU       47.05
 NUMERICALLY INTEGRATED DENSITY     39.9999940670
 TTTTTTTTTTTTTTTTTTTTTTTTTTTTTT NUMDFT      TELAPSE       49.05 TCPU       47.83
 CYC   7 ETOT(AU) -2.257954725008E+02 DETOT -1.91E-09 tst  3.67E-10 PX  6.51E-05

 == SCF ENDED - CONVERGENCE ON ENERGY      E(AU) -2.2579547250078E+02 CYCLES   7


 ENERGY EXPRESSION=HARTREE+FOCK EXCH*0.42000+(PBEh-3c    EXCH)*0.58000+PBEh-3c    CORR


 TOTAL ENERGY(DFT)(AU)(  7) -2.2579547250078E+02 DE-1.9E-09 tester 3.7E-10
 TTTTTTTTTTTTTTTTTTTTTTTTTTTTTT EDFT        TELAPSE       49.05 TCPU       47.84
 
 INFORMATION **** DFTD3 ENERGY **** CALCULATE DFTD3 ENERGY

# Z  R0(AA)[Ang.]   CN       C6(AA)     C8(AA)   C10(AA) [au] 
   7  1.311      2.997        15.7       345.5      9336.4
   7  1.311      2.990        15.7       345.6      9339.1
   7  1.311      2.990        15.7       345.6      9339.1
   7  1.311      2.990        15.7       345.6      9339.1
   1  1.091      0.997         3.1        37.4       553.5
   1  1.091      0.997         3.1        37.4       553.5
   1  1.091      0.999         3.1        37.4       553.3
   1  1.091      0.997         3.1        37.4       553.5
   1  1.091      0.997         3.1        37.4       553.5
   1  1.091      0.997         3.1        37.4       553.5
   1  1.091      0.997         3.1        37.4       553.5
   1  1.091      0.997         3.1        37.4       553.5
   1  1.091      0.997         3.1        37.4       553.5
   1  1.091      0.999         3.1        37.4       553.3
   1  1.091      0.999         3.1        37.4       553.3
   1  1.091      0.997         3.1        37.4       553.5

 molecular/unit cell C6(AA) [au] =      1354.60

           DFT-D V3(BJ)
 DF                                         pbeh3c    
 parameters
 s6       :    1.0000
 s8       :    0.0000
 a1       :    0.4860
 a2       :    4.5000
 k1 k3    :   16.0000   -4.0000
 Cutoff   :   50.2022
 CN-Cutoff:   21.1671
 
 Edisp /kcal,au:   -11.6035 -0.01849129

 E6    /kcal :   -11.6035
 E8    /kcal :     0.0000
 
 INFORMATION **** DFTD3 ENERGY **** NORMAL TERMINATION OF DFTD3 MODULE

 GCP ENERGY CALCULATION
  level          pbeh3c              basis:pbeh3c
  Nbf             84
  Atoms           16

  Parameters: 
  sigma     1.0000
  eta       1.3249
  alpha     0.2765
  beta      1.9560

  dmp_scal      4.0000
  dmp_exp       6.0000
 cutoffs: 
   distance [bohr] 60.0
   noise    [a.u.] 2.2E-16
 SR-damping   T

      #  sites    Nvirt           Emiss    BSSE [kcal/mol]
      7    201     11.5          0.0272          3.2877
      7    201     11.5          0.0272          3.2877
      7    201     11.5          0.0272          3.2877
      7    201     11.5          0.0272          3.2877
      1    181      1.5          0.0000          0.0000
      1    181      1.5          0.0000          0.0000
      1    181      1.5          0.0000          0.0000
      1    181      1.5          0.0000          0.0000
      1    181      1.5          0.0000          0.0000
      1    181      1.5          0.0000          0.0000
      1    181      1.5          0.0000          0.0000
      1    181      1.5          0.0000          0.0000
      1    181      1.5          0.0000          0.0000
      1    181      1.5          0.0000          0.0000
      1    181      1.5          0.0000          0.0000
      1    181      1.5          0.0000          0.0000
 ** gCP correction **
  Egcp:        0.0209572843 / (a.u.) ||      13.1509 / (kcal/mol)
 INFORMATION **** GCP **** NORMAL TERMINATION OF GCP MODULE

 *******************************************************************************

 DFT-D3-GCP DISPERSION AND COUNTERPOISE CORRECTION

 D3 DISPERSION ENERGY (AU)      -1.8491291878749E-02
 GCP ENERGY (AU)                 2.0957284319960E-02
 TOTAL ENERGY + DISP + GCP (AU) -2.2579300650834E+02

 *******************************************************************************

 EIGENVECTORS IN FORTRAN UNIT 10
 TTTTTTTTTTTTTTTTTTTTTTTTTTTTTT END         TELAPSE       49.15 TCPU       47.93
 EEEEEEEEEE TERMINATION  DATE 17 09 2022 TIME 11:49:05.4
