
         
 *******************************************************************************
 *                                                                             *
 *                               CRYSTAL17                                     *
 *                      public : 1.0.1 - Feb 1st, 2017                         *
 *                       HTTP://WWW.CRYSTAL.UNITO.IT                           *
 *                                                                             *
 *                              MAIN AUTHORS                                   *
 *                                                                             *
 *  R. DOVESI(1,11), V.R. SAUNDERS(2), C. ROETTI(1,11), R. ORLANDO(1,11),      *
 *  C.M. ZICOVICH-WILSON(1,3), F. PASCALE(4), B. CIVALLERI(1,11),              *
 *  K. DOLL(5), N.M. HARRISON(2,6), I.J. BUSH(7), Ph. D'ARCO(8),               *
 *  M. LLUNELL(9), M. CAUSA'(10), Y. NOEL(8), L. MASCHIO(1,11), A. ERBA(1,11)  *
 *  M. RE'RAT(14), S. CASASSA(1,11)                                            *
 *                                                                             *
 *        CONTRIBUTIONS TO THE CODE HAVE ALSO BEEN GIVEN BY                    *
 *                                                                             *
 *  M. FERRABONE(1,11), M. DE LA PIERRE(1,11), M. FERRERO(1,11),               *
 *  J. BAIMA(1,11), E. ALBANESE(1,11), M.F. PEINTINGER(12), R. BAST(13),       *
 *  B. KIRTMAN(15), V. LACIVITA(1,11), R. DEMICHELIS(1,16)                     *
 *  G. BRANDEBURG(17), S. SALUSTRO(1,11), G. SANSONE(1,11)                     *
 *  M.T. RUGGIERO(18)                                                          *
 *                                                                             *
 * (1) THEORETICAL CHEMISTRY GROUP - UNIVERSITA' DI TORINO - TORINO (ITALY)    *

 * (2) COMPUTATIONAL SCIENCE & ENGINEERING DEPARTMENT - STFC DARESBURY (UK)    *
 * (3) UNIVERSIDAD AUTONOMA DEL ESTADO DE MORELOS - CUERNAVACA (MEXICO)        *
 * (4) UNIVERSITE' DE LORRAINE - NANCY (FRANCE)                                *
 * (5) UNIVERSITAET STUTTGART- STUTTGART (GERMANY)                             *
 * (6) IMPERIAL COLLEGE - LONDON (UK)                                          *
 * (7) OXFORD E-RESEARCH CENTRE - OXFORD (UK)                                  *
 * (8) UPMC - SORBONNE UNIVERSITES - PARIS (FRANCE)                            *
 * (9) UNIVERSIDAD DE BARCELONA - BARCELONA (SPAIN)                            *
 *(10) UNIVERSITA' DI NAPOLI "FEDERICO II" - NAPOLI (ITALY)                    *
 *(11) NIS - NANOSTRUCTURED INTERFACES AND SURFACES - TORINO (ITALY)           *
 *(12) MPI FUER CHEMISCHE ENERGIEKONVERSION - MUELHEIM AN DER RUHR (GERMANY)   *
 *(13) UNIVERSITY OF TROMSO - TROMSO (NORWAY)                                  *
 *(14) UNIVERSITE' DE PAU ET DES PAYS DE L'ADOUR - PAU (FRANCE)                *
 *(15) UNIVERSITY OF CALIFORNIA SANTA BARBARA - SANTA BARBARA (USA)            *
 *(16) CURTIN UNIVERSITY - PERTH (AUSTRALIA)                                   *
 *(17) UNIVERSITY COLLEGE LONDON - LONDON (UK)                                 *
 *(18) CAMBRIDGE UNIVERSITY - CAMBRIDGE (UK)                                   *
 *                                                                             *
 *******************************************************************************
 EEEEEEEEEE STARTING  DATE 17 09 2022 TIME 11:33:57.7
 NH3 (geom. expt. NPD 2K) 6-31G(d,p)                                             

 CRYSTAL CALCULATION
 (INPUT ACCORDING TO THE INTERNATIONAL TABLES FOR X-RAY CRYSTALLOGRAPHY)
 CRYSTAL FAMILY                       :  CUBIC       
 CRYSTAL CLASS  (GROTH - 1921)        :  CUBIC TETRAHEDRAL-PENTAGONALDODECAHED

 SPACE GROUP (NONCENTROSYMMETRIC)     :  P 21 3          

 LATTICE PARAMETERS  (ANGSTROMS AND DEGREES) - CONVENTIONAL CELL
        A           B           C        ALPHA        BETA       GAMMA
     5.04800     5.04800     5.04800    90.00000    90.00000    90.00000


 NUMBER OF IRREDUCIBLE ATOMS IN THE CONVENTIONAL CELL:    2

 INPUT COORDINATES

 ATOM AT. N.              COORDINATES
   1   7     1.959005168248E-01  1.959005168248E-01  1.959005168248E-01
   2   1     3.514797245100E-01  2.731578767146E-01  9.193305407193E-02

 *******************************************************************************

 << INFORMATION >>: FROM NOW ON, ALL COORDINATES REFER TO THE PRIMITIVE CELL

 *******************************************************************************

 LATTICE PARAMETERS  (ANGSTROMS AND DEGREES) - PRIMITIVE CELL
       A          B          C        ALPHA      BETA     GAMMA        VOLUME
    5.04800    5.04800    5.04800    90.00000  90.00000  90.00000    128.634671

 COORDINATES OF THE EQUIVALENT ATOMS (FRACTIONAL UNITS)

 N. ATOM EQUIV AT. N.          X                  Y                  Z

   1   1   1    7 N     1.95900516825E-01  1.95900516825E-01  1.95900516825E-01
   2   1   2    7 N     3.04099483175E-01 -1.95900516825E-01 -3.04099483175E-01
   3   1   3    7 N    -3.04099483175E-01  3.04099483175E-01 -1.95900516825E-01
   4   1   4    7 N    -1.95900516825E-01 -3.04099483175E-01  3.04099483175E-01

   5   2   1    1 H     3.51479724510E-01  2.73157876715E-01  9.19330540719E-02
   6   2   2    1 H     1.48520275490E-01 -2.73157876715E-01 -4.08066945928E-01
   7   2   3    1 H    -1.48520275490E-01  2.26842123285E-01 -9.19330540719E-02
   8   2   4    1 H    -3.51479724510E-01 -2.26842123285E-01  4.08066945928E-01
   9   2   5    1 H     9.19330540719E-02  3.51479724510E-01  2.73157876715E-01
  10   2   6    1 H     2.73157876715E-01  9.19330540719E-02  3.51479724510E-01
  11   2   7    1 H     4.08066945928E-01 -3.51479724510E-01 -2.26842123285E-01
  12   2   8    1 H    -2.73157876715E-01 -4.08066945928E-01  1.48520275490E-01
  13   2   9    1 H    -4.08066945928E-01  1.48520275490E-01 -2.73157876715E-01
  14   2  10    1 H     2.26842123285E-01 -9.19330540719E-02 -1.48520275490E-01
  15   2  11    1 H    -9.19330540719E-02 -1.48520275490E-01  2.26842123285E-01
  16   2  12    1 H    -2.26842123285E-01  4.08066945928E-01 -3.51479724510E-01

 NUMBER OF SYMMETRY OPERATORS         :   12
 *******************************************************************************
 * GEOMETRY EDITING - INPUT COORDINATES ARE GIVEN IN ANGSTROM         
 *******************************************************************************

 GEOMETRY NOW FULLY CONSISTENT WITH THE GROUP

 GCALCO - MAX INDICES DIRECT LATTICE VECTOR    14    14    14
 NO.OF VECTORS CREATED 6999 STARS  120 RMAX   113.27336 BOHR

 GEOMETRY FOR WAVE FUNCTION - DIMENSIONALITY OF THE SYSTEM    3
 (NON PERIODIC DIRECTION: LATTICE PARAMETER FORMALLY SET TO 500)
 *******************************************************************************
 LATTICE PARAMETERS (ANGSTROMS AND DEGREES) - BOHR = 0.5291772083 ANGSTROM
 PRIMITIVE CELL - CENTRING CODE 1/0 VOLUME=   128.634671 - DENSITY  0.879 g/cm^3
         A              B              C           ALPHA      BETA       GAMMA 
     5.04800000     5.04800000     5.04800000    90.000000  90.000000  90.000000
 *******************************************************************************
 ATOMS IN THE ASYMMETRIC UNIT    2 - ATOMS IN THE UNIT CELL:   16
     ATOM                 X/A                 Y/B                 Z/C    
 *******************************************************************************
      1 T   7 N     1.959005168248E-01  1.959005168248E-01  1.959005168248E-01
      2 F   7 N     3.040994831752E-01 -1.959005168248E-01 -3.040994831752E-01
      3 F   7 N    -3.040994831752E-01  3.040994831752E-01 -1.959005168248E-01
      4 F   7 N    -1.959005168248E-01 -3.040994831752E-01  3.040994831752E-01
      5 T   1 H     3.514797245100E-01  2.731578767146E-01  9.193305407193E-02
      6 F   1 H     1.485202754900E-01 -2.731578767146E-01 -4.080669459281E-01
      7 F   1 H    -1.485202754900E-01  2.268421232854E-01 -9.193305407193E-02
      8 F   1 H    -3.514797245100E-01 -2.268421232854E-01  4.080669459281E-01
      9 F   1 H     9.193305407193E-02  3.514797245100E-01  2.731578767146E-01
     10 F   1 H     2.731578767146E-01  9.193305407193E-02  3.514797245100E-01
     11 F   1 H     4.080669459281E-01 -3.514797245100E-01 -2.268421232854E-01
     12 F   1 H    -2.731578767146E-01 -4.080669459281E-01  1.485202754900E-01
     13 F   1 H    -4.080669459281E-01  1.485202754900E-01 -2.731578767146E-01
     14 F   1 H     2.268421232854E-01 -9.193305407193E-02 -1.485202754900E-01
     15 F   1 H    -9.193305407193E-02 -1.485202754900E-01  2.268421232854E-01
     16 F   1 H    -2.268421232854E-01  4.080669459281E-01 -3.514797245100E-01

 T = ATOM BELONGING TO THE ASYMMETRIC UNIT

 ****   12 SYMMOPS - TRANSLATORS IN FRACTIONAL UNITS
 **** MATRICES AND TRANSLATORS IN THE CRYSTALLOGRAPHIC REFERENCE FRAME
   V INV                    ROTATION MATRICES                   TRANSLATORS
   1   1  1.00  0.00  0.00  0.00  1.00  0.00  0.00  0.00  1.00  0.00  0.00  0.00
   2   2 -1.00  0.00  0.00  0.00 -1.00  0.00  0.00  0.00  1.00  0.50  0.00  0.50
   3   3  1.00  0.00  0.00  0.00 -1.00  0.00  0.00  0.00 -1.00  0.50  0.50  0.00
   4   4 -1.00  0.00  0.00  0.00  1.00  0.00  0.00  0.00 -1.00  0.00  0.50  0.50
   5   6  0.00  0.00  1.00  1.00  0.00  0.00  0.00  1.00  0.00  0.00  0.00  0.00
   6   5  0.00  1.00  0.00  0.00  0.00  1.00  1.00  0.00  0.00  0.00  0.00  0.00
   7   8  0.00  0.00 -1.00 -1.00  0.00  0.00  0.00  1.00  0.00  0.50  0.00  0.50
   8   7  0.00 -1.00  0.00  0.00  0.00  1.00 -1.00  0.00  0.00  0.00  0.50  0.50
   9  10  0.00  0.00  1.00 -1.00  0.00  0.00  0.00 -1.00  0.00  0.50  0.50  0.00
  10   9  0.00 -1.00  0.00  0.00  0.00 -1.00  1.00  0.00  0.00  0.50  0.00  0.50
  11  12  0.00  0.00 -1.00  1.00  0.00  0.00  0.00 -1.00  0.00  0.00  0.50  0.50
  12  11  0.00  1.00  0.00  0.00  0.00 -1.00 -1.00  0.00  0.00  0.50  0.50  0.00

 DIRECT LATTICE VECTORS CARTESIAN COMPONENTS (ANGSTROM)
          X                    Y                    Z
   0.504800000000E+01   0.000000000000E+00   0.000000000000E+00
   0.000000000000E+00   0.504800000000E+01   0.000000000000E+00
   0.000000000000E+00   0.000000000000E+00   0.504800000000E+01


 CARTESIAN COORDINATES - PRIMITIVE CELL
 *******************************************************************************
 *      ATOM          X(ANGSTROM)         Y(ANGSTROM)         Z(ANGSTROM)
 *******************************************************************************
    1     7 N     9.889058089316E-01  9.889058089316E-01  9.889058089316E-01
    2     7 N     1.535094191068E+00 -9.889058089316E-01 -1.535094191068E+00
    3     7 N    -1.535094191068E+00  1.535094191068E+00 -9.889058089316E-01
    4     7 N    -9.889058089316E-01 -1.535094191068E+00  1.535094191068E+00
    5     1 H     1.774269649326E+00  1.378900961655E+00  4.640780569551E-01
    6     1 H     7.497303506735E-01 -1.378900961655E+00 -2.059921943045E+00
    7     1 H    -7.497303506735E-01  1.145099038345E+00 -4.640780569551E-01
    8     1 H    -1.774269649326E+00 -1.145099038345E+00  2.059921943045E+00
    9     1 H     4.640780569551E-01  1.774269649326E+00  1.378900961655E+00
   10     1 H     1.378900961655E+00  4.640780569551E-01  1.774269649326E+00
   11     1 H     2.059921943045E+00 -1.774269649326E+00 -1.145099038345E+00
   12     1 H    -1.378900961655E+00 -2.059921943045E+00  7.497303506735E-01
   13     1 H    -2.059921943045E+00  7.497303506735E-01 -1.378900961655E+00
   14     1 H     1.145099038345E+00 -4.640780569551E-01 -7.497303506735E-01
   15     1 H    -4.640780569551E-01 -7.497303506735E-01  1.145099038345E+00
   16     1 H    -1.145099038345E+00  2.059921943045E+00 -1.774269649326E+00

 *******************************************************************************
 LOCAL ATOMIC FUNCTIONS BASIS SET
 *******************************************************************************
   ATOM   X(AU)   Y(AU)   Z(AU)  N. TYPE  EXPONENT  S COEF   P COEF   D/F/G COEF
 *******************************************************************************
   1 N    1.869   1.869   1.869
                                  1 S  
                                         4.174E+03 1.835E-03 0.000E+00 0.000E+00
                                         6.275E+02 1.399E-02 0.000E+00 0.000E+00
                                         1.429E+02 6.859E-02 0.000E+00 0.000E+00
                                         4.023E+01 2.322E-01 0.000E+00 0.000E+00
                                         1.282E+01 4.691E-01 0.000E+00 0.000E+00
                                         4.390E+00 3.605E-01 0.000E+00 0.000E+00
                           2-     5 SP 
                                         1.163E+01-1.150E-01 6.758E-02 0.000E+00
                                         2.716E+00-1.691E-01 3.239E-01 0.000E+00
                                         7.722E-01 1.146E+00 7.409E-01 0.000E+00
                           6-     9 SP 
                                         2.120E-01 1.000E+00 1.000E+00 0.000E+00
                          10-    14 D  
                                         8.000E-01 0.000E+00 0.000E+00 1.000E+00
   2 N    2.901  -1.869  -2.901
   3 N   -2.901   2.901  -1.869
   4 N   -1.869  -2.901   2.901
   5 H    3.353   2.606   0.877
                                 57 S  
                                         1.873E+01 3.349E-02 0.000E+00 0.000E+00
                                         2.825E+00 2.347E-01 0.000E+00 0.000E+00
                                         6.401E-01 8.138E-01 0.000E+00 0.000E+00
                                 58 S  
                                         1.613E-01 1.000E+00 0.000E+00 0.000E+00
                          59-    61 P  
                                         1.100E+00 0.000E+00 1.000E+00 0.000E+00
   6 H    1.417  -2.606  -3.893
   7 H   -1.417   2.164  -0.877
   8 H   -3.353  -2.164   3.893
   9 H    0.877   3.353   2.606
  10 H    2.606   0.877   3.353
  11 H    3.893  -3.353  -2.164
  12 H   -2.606  -3.893   1.417
  13 H   -3.893   1.417  -2.606
  14 H    2.164  -0.877  -1.417
  15 H   -0.877  -1.417   2.164
  16 H   -2.164   3.893  -3.353
 INFORMATION **** SET_MPP **** PCRYSTAL CALCULATION
 INFORMATION **** READM2 **** NEW DEFAULT: FOCK/KS MATRIX MIXING SET TO 30 %
 INFORMATION **** READM2 **** NEW DEFAULT: FULL DIRECT SCF MODE
 INFORMATION **** READM2 **** NEW DEFAULT: COULOMB BIPOLAR BUFFER SET TO 32 Mb
 INFORMATION **** READM2 **** NEW DEFAULT: EXCHANGE BIPOLAR BUFFER SET TO 32 Mb

 *******************************************************************************
 NEW DEFAULT: DFT INTEGRATION GRID INCREASED TO XLGRID
 NEW DEFAULT: DIIS ACCELERATOR ACTIVE
 USE KEYWORD NODIIS TO TURN IT OFF
 *******************************************************************************

 INFORMATION **** GCP_INPUT **** PERFORM GEOMETRIC BSSE CORRECTION GCP

 PLEASE CITE
 (1) GCP Reference:
  H. Kruse and S. Grimme J. Chem. Phys, 2012,136,154101
 (2) GCP for Periodic Systems
  J. G. Brandenburg, M. Alessio, B. Civalleri, M. F. Peintinger, T. Bredow, and S.Grimme,
  J. Phys. Chem. A, 2013,117,9282

 WARNING **** GCP_INPUT **** GCP SHOULD BE ALWAYS COMBINED WITH AN ACCURATE DISPERSION CORRECTION
 WARNING **** GCP_INPUT **** CONSIDER USING THE DFTD3 METHOD
 WARNING **** GCP_INPUT **** FUNCTIONAL/BASIS COMBINATION AND GCPMETHOD NOT IDENTICAL
 WARNING **** GCP_INPUT **** TAKE GCPMETHOD FOR PARAMETER SETUP
 gcpmethoddft/631gd                
 INFORMATION **** TOLINTEG **** COULOMB AND EXCHANGE SERIES TOLERANCES MODIFIED
 INFORMATION **** DIIS **** DIIS FOR SCF ACTIVE
 INFORMATION **** DIIS **** LEVEL SHIFTER DISABLED
 *******************************************************************************
 N. OF ATOMS PER CELL        16  COULOMB OVERLAP TOL         (T1) 10**   -7
 NUMBER OF SHELLS            52  COULOMB PENETRATION TOL     (T2) 10**   -7
 NUMBER OF AO               116  EXCHANGE OVERLAP TOL        (T3) 10**   20
 N. OF ELECTRONS PER CELL    40  EXCHANGE PSEUDO OVP (F(G))  (T4) 10**   20
 CORE ELECTRONS PER CELL      8  EXCHANGE PSEUDO OVP (P(G))  (T5) 10**   20
 N. OF SYMMETRY OPERATORS    12  POLE ORDER IN MONO ZONE                  4
 *******************************************************************************
 TYPE OF CALCULATION :  RESTRICTED CLOSED SHELL
 KOHN-SHAM HAMILTONIAN

 (EXCHANGE)[CORRELATION] FUNCTIONAL:(PERDEW-BURKE-ERNZERHOF)[PERDEW-BURKE-ERNZERHOF]


 CAPPA:IS1  6;IS2  6;IS3  6; K PTS MONK NET  24; SYMMOPS:K SPACE  24;G SPACE  12

 *******************************************************************************
 MAX NUMBER OF SCF CYCLES      50  CONVERGENCE ON DELTAP        10**-16
 WEIGHT OF F(I) IN F(I+1)      30% CONVERGENCE ON ENERGY        10**- 6
 SHRINK. FACT.(MONKH.)    6  6  6  NUMBER OF K POINTS IN THE IBZ     24
 SHRINKING FACTOR(GILAT NET)    6  NUMBER OF K POINTS(GILAT NET)     24
 *******************************************************************************
 *** K POINTS COORDINATES (OBLIQUE COORDINATES IN UNITS OF IS =  6)
   1-R(  0  0  0)   2-C(  1  0  0)   3-C(  2  0  0)   4-R(  3  0  0)
   5-C(  1  1  0)   6-C(  2  1  0)   7-C(  3  1  0)   8-C(  1  2  0)
   9-C(  2  2  0)  10-C(  3  2  0)  11-C(  1  3  0)  12-C(  2  3  0)
  13-R(  3  3  0)  14-C(  1  1  1)  15-C(  2  1  1)  16-C(  3  1  1)
  17-C(  2  2  1)  18-C(  3  2  1)  19-C(  2  3  1)  20-C(  3  3  1)
  21-C(  2  2  2)  22-C(  3  2  2)  23-C(  3  3  2)  24-R(  3  3  3)

 DIRECT LATTICE VECTORS COMPON. (A.U.)     RECIP. LATTICE VECTORS COMPON. (A.U.) 
        X            Y            Z              X            Y            Z
    9.5393375    0.0000000    0.0000000      0.6586606    0.0000000    0.0000000
    0.0000000    9.5393375    0.0000000      0.0000000    0.6586606    0.0000000
    0.0000000    0.0000000    9.5393375      0.0000000    0.0000000    0.6586606

 DISK SPACE FOR EIGENVECTORS (FTN 10)      592064 REALS

 SYMMETRY ADAPTION OF THE BLOCH FUNCTIONS ENABLED
 TTTTTTTTTTTTTTTTTTTTTTTTTTTTTT gordsh1     TELAPSE        0.01 TCPU        0.01

 MATRIX SIZE: P(G)   40708, F(G)   20568, P(G) IRR    1973, F(G) IRR    1973
 MAX G-VECTOR INDEX FOR 1- AND 2-ELECTRON INTEGRALS  57

 TTTTTTTTTTTTTTTTTTTTTTTTTTTTTT INPUT       TELAPSE        0.01 TCPU        0.01

 NEIGHBORS OF THE NON-EQUIVALENT ATOMS

 N = NUMBER OF NEIGHBORS AT DISTANCE R
    ATOM  N     R/ANG      R/AU   NEIGHBORS (ATOM LABELS AND CELL INDICES)
   1 N    3     1.0219     1.9312    5 H    0 0 0    9 H    0 0 0   10 H    0 0 0
   1 N    3     2.2712     4.2920    7 H    0 0 0   14 H    0 0 0   15 H    0 0 0
   1 N    3     3.1081     5.8735    6 H    0 0 1   12 H    0 1 0   13 H    1 0 0
   1 N    6     3.2528     6.1469    2 N    0 0 0    2 N    0 0 1    3 N    0 0 0
                                     3 N    1 0 0    4 N    0 0 0    4 N    0 1 0
   1 N    3     3.3048     6.2451    8 H    1 0 0   11 H    0 1 0   16 H    0 0 1
   1 N    3     3.3522     6.3348    6 H    0 1 1   12 H    1 1 0   13 H    1 0 1

   5 H    1     1.0219     1.9312    1 N    0 0 0
   5 H    2     1.6462     3.1108    9 H    0 0 0   10 H    0 0 0
   5 H    1     2.2712     4.2920    3 N    1 0 0
   5 H    2     2.2947     4.3364   13 H    1 0 0   14 H    0 0 0
   5 H    2     2.5023     4.7286   11 H    0 1 0   12 H    1 1 0
   5 H    2     2.6994     5.1011    7 H    0 0 0    7 H    1 0 0


 SYMMETRY ALLOWED INTERNAL DEGREE(S) OF FREEDOM:   4
 TTTTTTTTTTTTTTTTTTTTTTTTTTTTTT SYMM        TELAPSE        0.02 TCPU        0.02
 TTTTTTTTTTTTTTTTTTTTTTTTTTTTTT INT_SCREEN  TELAPSE        0.02 TCPU        0.02
 INFORMATION **** EXCBUF **** EXCH. BIPO BUFFER: WORDS USED =           0

 DFT PARAMETERS

     ATOM       ELECTRONS   NET CHARGE   R(ANGSTROM)
   1   7  N       7.0000      0.0000     0.74000000
   5   1  H       1.0000      0.0000     1.11000000

 SIZE OF GRID=      28288
 TTTTTTTTTTTTTTTTTTTTTTTTTTTTTT MAKE_GRID2  TELAPSE        1.22 TCPU        1.21
 BECKE WEIGHT FUNCTION
 RADSAFE =     2.00
 TOLERANCES - DENSITY:10**- 6; POTENTIAL:10**- 9; GRID WGT:10**-14

 RADIAL INTEGRATION  - INTERVALS (POINTS,UPPER LIMIT):            1( 75,  4.0*R)

 ANGULAR INTEGRATION - INTERVALS (ACCURACY LEVEL [N. POINTS] UPPER LIMIT):
  1(  4[  86]   0.2)  2(  8[ 194]   0.5)  3( 12[ 350]   0.9)  4( 16[ 974]   3.5)
  5( 12[ 350]9999.0)
 TTTTTTTTTTTTTTTTTTTTTTTTTTTTTT INT_CALC    TELAPSE        1.23 TCPU        1.22
 EEEEEEEEEE INT_CALC TERMINATION  DATE 17 09 2022 TIME 11:33:58.9

 *******************************************************************************
 NH3 (geom. expt. NPD 2K) 6-31G(d,p)                                             
 CRYSTAL - SCF - TYPE OF CALCULATION :  RESTRICTED CLOSED SHELL
 *******************************************************************************

 CAPPA:IS1  6;IS2  6;IS3  6; K PTS MONK NET  24; SYMMOPS:K SPACE  24;G SPACE  12

 TTTTTTTTTTTTTTTTTTTTTTTTTTTTTT SDIK        TELAPSE        1.25 TCPU        1.25

 AAAAAAAAAAAAAAAAAAAAAAAAAAAAAAAAAAAAAAAAAAAAAAAAAAAAAAAAAAAAAAAAAAAAAAAAAAAAAAA
         ATOMIC WAVEFUNCTION(S)


 NUCLEAR CHARGE  7.0  SYMMETRY SPECIES            S    P
 N. ELECTRONS    7.0  NUMBER OF PRIMITIVE GTOS   10    4
                      NUMBER OF CONTRACTED GTOS   3    2
                      NUMBER OF CLOSED SHELLS     2    0
                      OPEN SHELL OCCUPATION       0    3

  ZNUC SCFIT  TOTAL HF ENERGY   KINETIC ENERGY   VIRIAL THEOREM ACCURACY
   7.0   9   -5.438205108E+01  5.431247470E+01 -2.001281039E+00  1.7E-06

 NUCLEAR CHARGE  1.0  SYMMETRY SPECIES            S
 N. ELECTRONS    1.0  NUMBER OF PRIMITIVE GTOS    4
                      NUMBER OF CONTRACTED GTOS   2
                      NUMBER OF CLOSED SHELLS     0
                      OPEN SHELL OCCUPATION       1

  ZNUC SCFIT  TOTAL HF ENERGY   KINETIC ENERGY   VIRIAL THEOREM ACCURACY
   1.0   1   -4.982329092E-01  5.098666671E-01 -1.977182745E+00  0.0E+00

 AAAAAAAAAAAAAAAAAAAAAAAAAAAAAAAAAAAAAAAAAAAAAAAAAAAAAAAAAAAAAAAAAAAAAAAAAAAAAAA

 CHARGE NORMALIZATION FACTOR   1.00000000
 TOTAL ATOMIC CHARGES:
   7.0000000   7.0000000   7.0000000   7.0000000   1.0000000   1.0000000
   1.0000000   1.0000000   1.0000000   1.0000000   1.0000000   1.0000000
   1.0000000   1.0000000   1.0000000   1.0000000
 TTTTTTTTTTTTTTTTTTTTTTTTTTTTTT MOQGAD      TELAPSE        1.26 TCPU        1.26
 TTTTTTTTTTTTTTTTTTTTTTTTTTTTTT SHELLXN     TELAPSE        2.55 TCPU        2.42
 TTTTTTTTTTTTTTTTTTTTTTTTTTTTTT MONMO3      TELAPSE        2.63 TCPU        2.50
 NUMERICALLY INTEGRATED DENSITY     39.9999978996
 TTTTTTTTTTTTTTTTTTTTTTTTTTTTTT NUMDFT      TELAPSE        3.00 TCPU        2.87
 CYC   0 ETOT(AU) -2.259838666911E+02 DETOT -2.26E+02 tst  0.00E+00 PX  1.00E+00
 TTTTTTTTTTTTTTTTTTTTTTTTTTTTTT DIIS        TELAPSE        3.01 TCPU        2.88
 TTTTTTTTTTTTTTTTTTTTTTTTTTTTTT FDIK        TELAPSE        3.19 TCPU        3.04
 INSULATING STATE
 TOP OF VALENCE BANDS -    BAND     20; K    1; EIG -3.4898127E-01 AU
 BOTTOM OF VIRTUAL BANDS - BAND     21; K    1; EIG -1.1560566E-01 AU
 DIRECT ENERGY BAND GAP:   6.3505 eV
 TTTTTTTTTTTTTTTTTTTTTTTTTTTTTT PDIG        TELAPSE        3.21 TCPU        3.05
 CHARGE NORMALIZATION FACTOR   1.00000000
 TOTAL ATOMIC CHARGES:
   8.1833198   8.1833198   8.1833198   8.1833198   0.6055601   0.6055601
   0.6055601   0.6055601   0.6055601   0.6055601   0.6055601   0.6055601
   0.6055601   0.6055601   0.6055601   0.6055601
 TTTTTTTTTTTTTTTTTTTTTTTTTTTTTT MOQGAD      TELAPSE        3.22 TCPU        3.06
 TTTTTTTTTTTTTTTTTTTTTTTTTTTTTT SHELLXN     TELAPSE        4.36 TCPU        4.20
 TTTTTTTTTTTTTTTTTTTTTTTTTTTTTT MONMO3      TELAPSE        4.42 TCPU        4.27
 NUMERICALLY INTEGRATED DENSITY     39.9999991081
 TTTTTTTTTTTTTTTTTTTTTTTTTTTTTT NUMDFT      TELAPSE        5.23 TCPU        5.07
 CYC   1 ETOT(AU) -2.257109036609E+02 DETOT  2.73E-01 tst  0.00E+00 PX  1.00E+00
 TTTTTTTTTTTTTTTTTTTTTTTTTTTTTT DIIS        TELAPSE        5.24 TCPU        5.08
 DIIS TEST: 0.19988E+01 AT SCF   CYCLE   1 - MIX   30 %
 TTTTTTTTTTTTTTTTTTTTTTTTTTTTTT FDIK        TELAPSE        5.32 TCPU        5.16
 INSULATING STATE
 TOP OF VALENCE BANDS -    BAND     20; K    1; EIG -1.6603778E-01 AU
 BOTTOM OF VIRTUAL BANDS - BAND     21; K    1; EIG -4.1981452E-02 AU
 DIRECT ENERGY BAND GAP:   3.3757 eV
 TTTTTTTTTTTTTTTTTTTTTTTTTTTTTT PDIG        TELAPSE        5.33 TCPU        5.17
 CHARGE NORMALIZATION FACTOR   1.00000000
 TOTAL ATOMIC CHARGES:
   7.4325749   7.4325749   7.4325749   7.4325749   0.8558084   0.8558084
   0.8558084   0.8558084   0.8558084   0.8558084   0.8558084   0.8558084
   0.8558084   0.8558084   0.8558084   0.8558084
 TTTTTTTTTTTTTTTTTTTTTTTTTTTTTT MOQGAD      TELAPSE        5.34 TCPU        5.19
 TTTTTTTTTTTTTTTTTTTTTTTTTTTTTT SHELLXN     TELAPSE        6.49 TCPU        6.33
 TTTTTTTTTTTTTTTTTTTTTTTTTTTTTT MONMO3      TELAPSE        6.55 TCPU        6.39
 NUMERICALLY INTEGRATED DENSITY     39.9999881299
 TTTTTTTTTTTTTTTTTTTTTTTTTTTTTT NUMDFT      TELAPSE        7.59 TCPU        7.31
 CYC   2 ETOT(AU) -2.258166637872E+02 DETOT -1.06E-01 tst  9.82E-03 PX  2.36E-01
 TTTTTTTTTTTTTTTTTTTTTTTTTTTTTT DIIS        TELAPSE        7.60 TCPU        7.32
 DIIS TEST: 0.11474E+01 AT SCF   CYCLE   2 - DIIS ACTIVE - HISTORY:     2 CYCLES
 TTTTTTTTTTTTTTTTTTTTTTTTTTTTTT FDIK        TELAPSE        7.73 TCPU        7.41
 INSULATING STATE
 TOP OF VALENCE BANDS -    BAND     20; K    1; EIG -2.2305321E-01 AU
 BOTTOM OF VIRTUAL BANDS - BAND     21; K    1; EIG -5.9252870E-02 AU
 DIRECT ENERGY BAND GAP:   4.4572 eV
 TTTTTTTTTTTTTTTTTTTTTTTTTTTTTT PDIG        TELAPSE        7.74 TCPU        7.42
 CHARGE NORMALIZATION FACTOR   1.00000000
 TOTAL ATOMIC CHARGES:
   7.8169901   7.8169901   7.8169901   7.8169901   0.7276700   0.7276700
   0.7276700   0.7276700   0.7276700   0.7276700   0.7276700   0.7276700
   0.7276700   0.7276700   0.7276700   0.7276700
 TTTTTTTTTTTTTTTTTTTTTTTTTTTTTT MOQGAD      TELAPSE        7.76 TCPU        7.43
 TTTTTTTTTTTTTTTTTTTTTTTTTTTTTT SHELLXN     TELAPSE        8.90 TCPU        8.57
 TTTTTTTTTTTTTTTTTTTTTTTTTTTTTT MONMO3      TELAPSE        8.97 TCPU        8.64
 NUMERICALLY INTEGRATED DENSITY     39.9999926246
 TTTTTTTTTTTTTTTTTTTTTTTTTTTTTT NUMDFT      TELAPSE        9.78 TCPU        9.45
 CYC   3 ETOT(AU) -2.259952095832E+02 DETOT -1.79E-01 tst  1.80E-03 PX  1.04E-01
 TTTTTTTTTTTTTTTTTTTTTTTTTTTTTT DIIS        TELAPSE        9.79 TCPU        9.46
 DIIS TEST: 0.26556E-02 AT SCF   CYCLE   3 - DIIS ACTIVE - HISTORY:     3 CYCLES
 TTTTTTTTTTTTTTTTTTTTTTTTTTTTTT FDIK        TELAPSE        9.87 TCPU        9.54
 INSULATING STATE
 TOP OF VALENCE BANDS -    BAND     20; K    1; EIG -2.2309844E-01 AU
 BOTTOM OF VIRTUAL BANDS - BAND     21; K    1; EIG -6.0837701E-02 AU
 DIRECT ENERGY BAND GAP:   4.4153 eV
 TTTTTTTTTTTTTTTTTTTTTTTTTTTTTT PDIG        TELAPSE        9.88 TCPU        9.55
 CHARGE NORMALIZATION FACTOR   1.00000000
 TOTAL ATOMIC CHARGES:
   7.7975012   7.7975012   7.7975012   7.7975012   0.7341663   0.7341663
   0.7341663   0.7341663   0.7341663   0.7341663   0.7341663   0.7341663
   0.7341663   0.7341663   0.7341663   0.7341663
 TTTTTTTTTTTTTTTTTTTTTTTTTTTTTT MOQGAD      TELAPSE        9.89 TCPU        9.56
 TTTTTTTTTTTTTTTTTTTTTTTTTTTTTT SHELLXN     TELAPSE       11.03 TCPU       10.69
 TTTTTTTTTTTTTTTTTTTTTTTTTTTTTT MONMO3      TELAPSE       11.10 TCPU       10.76
 NUMERICALLY INTEGRATED DENSITY     39.9999925113
 TTTTTTTTTTTTTTTTTTTTTTTTTTTTTT NUMDFT      TELAPSE       11.99 TCPU       11.61
 CYC   4 ETOT(AU) -2.259955840238E+02 DETOT -3.74E-04 tst  3.57E-06 PX  4.01E-03
 TTTTTTTTTTTTTTTTTTTTTTTTTTTTTT DIIS        TELAPSE       12.00 TCPU       11.62
 DIIS TEST: 0.15478E-04 AT SCF   CYCLE   4 - DIIS ACTIVE - HISTORY:     4 CYCLES
 TTTTTTTTTTTTTTTTTTTTTTTTTTTTTT FDIK        TELAPSE       12.10 TCPU       11.71
 INSULATING STATE
 TOP OF VALENCE BANDS -    BAND     20; K    1; EIG -2.2258066E-01 AU
 BOTTOM OF VIRTUAL BANDS - BAND     21; K    1; EIG -6.0515414E-02 AU
 DIRECT ENERGY BAND GAP:   4.4100 eV
 TTTTTTTTTTTTTTTTTTTTTTTTTTTTTT PDIG        TELAPSE       12.12 TCPU       11.72
 CHARGE NORMALIZATION FACTOR   1.00000000
 TOTAL ATOMIC CHARGES:
   7.7965578   7.7965578   7.7965578   7.7965578   0.7344807   0.7344807
   0.7344807   0.7344807   0.7344807   0.7344807   0.7344807   0.7344807
   0.7344807   0.7344807   0.7344807   0.7344807
 TTTTTTTTTTTTTTTTTTTTTTTTTTTTTT MOQGAD      TELAPSE       12.15 TCPU       11.74
 TTTTTTTTTTTTTTTTTTTTTTTTTTTTTT SHELLXN     TELAPSE       13.39 TCPU       12.92
 TTTTTTTTTTTTTTTTTTTTTTTTTTTTTT MONMO3      TELAPSE       13.46 TCPU       12.99
 NUMERICALLY INTEGRATED DENSITY     39.9999924849
 TTTTTTTTTTTTTTTTTTTTTTTTTTTTTT NUMDFT      TELAPSE       14.26 TCPU       13.80
 CYC   5 ETOT(AU) -2.259955865787E+02 DETOT -2.55E-06 tst  2.96E-08 PX  3.62E-04
 TTTTTTTTTTTTTTTTTTTTTTTTTTTTTT DIIS        TELAPSE       14.27 TCPU       13.80
 DIIS TEST: 0.37988E-07 AT SCF   CYCLE   5 - DIIS ACTIVE - HISTORY:     5 CYCLES
 TTTTTTTTTTTTTTTTTTTTTTTTTTTTTT FDIK        TELAPSE       14.35 TCPU       13.88
 INSULATING STATE
 TOP OF VALENCE BANDS -    BAND     20; K    1; EIG -2.2258667E-01 AU
 BOTTOM OF VIRTUAL BANDS - BAND     21; K    1; EIG -6.0518862E-02 AU
 DIRECT ENERGY BAND GAP:   4.4101 eV
 TTTTTTTTTTTTTTTTTTTTTTTTTTTTTT PDIG        TELAPSE       14.36 TCPU       13.89
 CHARGE NORMALIZATION FACTOR   1.00000000
 TOTAL ATOMIC CHARGES:
   7.7965348   7.7965348   7.7965348   7.7965348   0.7344884   0.7344884
   0.7344884   0.7344884   0.7344884   0.7344884   0.7344884   0.7344884
   0.7344884   0.7344884   0.7344884   0.7344884
 TTTTTTTTTTTTTTTTTTTTTTTTTTTTTT MOQGAD      TELAPSE       14.37 TCPU       13.90
 TTTTTTTTTTTTTTTTTTTTTTTTTTTTTT SHELLXN     TELAPSE       15.51 TCPU       15.04
 TTTTTTTTTTTTTTTTTTTTTTTTTTTTTT MONMO3      TELAPSE       15.57 TCPU       15.11
 NUMERICALLY INTEGRATED DENSITY     39.9999924868
 TTTTTTTTTTTTTTTTTTTTTTTTTTTTTT NUMDFT      TELAPSE       16.38 TCPU       15.91
 CYC   6 ETOT(AU) -2.259955865795E+02 DETOT -8.38E-10 tst  2.35E-10 PX  1.81E-05
 TTTTTTTTTTTTTTTTTTTTTTTTTTTTTT DIIS        TELAPSE       16.39 TCPU       15.92
 DIIS TEST: 0.31587E-08 AT SCF   CYCLE   6 - DIIS ACTIVE - HISTORY:     6 CYCLES
 TTTTTTTTTTTTTTTTTTTTTTTTTTTTTT FDIK        TELAPSE       16.46 TCPU       16.00
 INSULATING STATE
 TOP OF VALENCE BANDS -    BAND     20; K    1; EIG -2.2258382E-01 AU
 BOTTOM OF VIRTUAL BANDS - BAND     21; K    1; EIG -6.0518295E-02 AU
 DIRECT ENERGY BAND GAP:   4.4100 eV
 TTTTTTTTTTTTTTTTTTTTTTTTTTTTTT PDIG        TELAPSE       16.47 TCPU       16.01
 CHARGE NORMALIZATION FACTOR   1.00000000
 TOTAL ATOMIC CHARGES:
   7.7965238   7.7965238   7.7965238   7.7965238   0.7344921   0.7344921
   0.7344921   0.7344921   0.7344921   0.7344921   0.7344921   0.7344921
   0.7344921   0.7344921   0.7344921   0.7344921
 TTTTTTTTTTTTTTTTTTTTTTTTTTTTTT MOQGAD      TELAPSE       16.49 TCPU       16.02
 TTTTTTTTTTTTTTTTTTTTTTTTTTTTTT SHELLXN     TELAPSE       17.84 TCPU       17.27
 +++ ENERGIES IN A.U. +++
 ::: EXT EL-POLE                                  -3.7967475027750E+02
 ::: EXT EL-SPHEROPOLE                             3.6148602804725E+00
 ::: BIELET ZONE E-E                               4.4821503646676E+02
 ::: TOTAL E-E                                     7.2155146469736E+01
 ::: TOTAL E-N + N-E                              -4.4743587491864E+02
 ::: TOTAL N-N                                    -4.3262371585975E+01
 ::: KINETIC ENERGY                                2.2440502477544E+02
 ::: PSEUDO TOTAL   ENERGY                        -1.9413807525943E+02
 ::: VIRIAL COEFFICIENT                            1.0723150125124E+00
 TTTTTTTTTTTTTTTTTTTTTTTTTTTTTT MONMO3      TELAPSE       17.91 TCPU       17.34
 NUMERICALLY INTEGRATED DENSITY     39.9999924863
 TTTTTTTTTTTTTTTTTTTTTTTTTTTTTT NUMDFT      TELAPSE       18.72 TCPU       18.14
 CYC   7 ETOT(AU) -2.259955865811E+02 DETOT -1.60E-09 tst  1.18E-11 PX  1.81E-05

 == SCF ENDED - CONVERGENCE ON ENERGY      E(AU) -2.2599558658112E+02 CYCLES   7


 ENERGY EXPRESSION=HARTREE+FOCK EXCH*0.00000+(PBE        EXCH)*1.00000+PBE        CORR


 TOTAL ENERGY(DFT)(AU)(  7) -2.2599558658112E+02 DE-1.6E-09 tester 1.2E-11
 TTTTTTTTTTTTTTTTTTTTTTTTTTTTTT EDFT        TELAPSE       18.72 TCPU       18.14

 GCP ENERGY CALCULATION
  level       dft/631gd           basis: 6-31G(d)
  Nbf             80
  Atoms           16

  Parameters: 
  sigma     0.3405
  eta       1.6127
  alpha     0.8589
  beta      1.2830

 cutoffs: 
   distance [bohr] 60.0
   noise    [a.u.] 2.2E-16
 SR-damping   F
 ** gCP correction **
  Egcp:        0.0626901946 / (a.u.) ||      39.3387 / (kcal/mol)
 INFORMATION **** GCP **** NORMAL TERMINATION OF GCP MODULE

 *******************************************************************************

 DFT-GCP COUNTERPOISE CORRECTION

 GCP ENERGY (AU)                  6.2690194603228E-02
 TOTAL ENERGY + GCP (AU)         -2.2593289638652E+02

 *******************************************************************************

 EIGENVECTORS IN FORTRAN UNIT 10
 TTTTTTTTTTTTTTTTTTTTTTTTTTTTTT END         TELAPSE       18.80 TCPU       18.23
 EEEEEEEEEE TERMINATION  DATE 17 09 2022 TIME 11:34:16.5
