
         
 *******************************************************************************
 *                                                                             *
 *                               CRYSTAL23                                     *
 *                      public : 1.0.1 - October 2022                          *
 *                       HTTP://WWW.CRYSTAL.UNITO.IT                           *
 *                                                                             *
 *                              MAIN AUTHORS                                   *
 *                                                                             *
 *  R. DOVESI(1,11), V.R. SAUNDERS(2), C. ROETTI(1,11), R. ORLANDO(1,11),      *
 *  C.M. ZICOVICH-WILSON(1,3), F. PASCALE(4), B. CIVALLERI(1,11),              *
 *  K. DOLL(5), N.M. HARRISON(6), I.J. BUSH(7), Ph. D'ARCO(8),                 *
 *  M. LLUNELL(9), M. CAUSA'(10), Y. NOEL(8), L. MASCHIO(1,11), A. ERBA(1,11)  *
 *  M. RE'RAT(14), S. CASASSA(1,11), B.G. SEARLE(2), J.K. DESMARAIS(1)         *
 *                                                                             *
 *        CONTRIBUTIONS TO THE CODE HAVE ALSO BEEN GIVEN BY                    *
 *                                                                             *
 *  M. FERRABONE(1,11), M. DE LA PIERRE(1,11), M. FERRERO(1,11),               *
 *  J. BAIMA(1,11), E. ALBANESE(1,11), M.F. PEINTINGER(12), R. BAST(13),       *
 *  B. KIRTMAN(15), V. LACIVITA(1,11), R. DEMICHELIS(1,16)                     *
 *  G. BRANDEBURG(17), S. SALUSTRO(1,11), G. SANSONE(1,11)                     *
 *  M.T. RUGGIERO(18), L.E. DAGA(1), L. DONA'(1), A. COSSARD(1)                *
 *                                                                             *
 * (1) THEORETICAL CHEMISTRY GROUP - UNIVERSITA' DI TORINO - TORINO (ITALY)    *
 * (2) SCIENTIFIC COMPUTING DEPARTMENT - STFC DARESBURY (UK)                   *
 * (3) UNIVERSIDAD AUTONOMA DEL ESTADO DE MORELOS - CUERNAVACA (MEXICO)        *
 * (4) UNIVERSITE' DE LORRAINE - NANCY (FRANCE)                                *
 * (5) UNIVERSITAET STUTTGART- STUTTGART (GERMANY)                             *
 * (6) IMPERIAL COLLEGE - LONDON (UK)                                          *
 * (7) SCIENTIFIC COMPUTING DEPARTMENT - STFC RAL (UK)                         *
 * (8) UPMC - SORBONNE UNIVERSITES - PARIS (FRANCE)                            *
 * (9) UNIVERSIDAD DE BARCELONA - BARCELONA (SPAIN)                            *
 *(10) UNIVERSITA' DI NAPOLI "FEDERICO II" - NAPOLI (ITALY)                    *
 *(11) NIS - NANOSTRUCTURED INTERFACES AND SURFACES - TORINO (ITALY)           *
 *(12) MPI FUER CHEMISCHE ENERGIEKONVERSION - MUELHEIM AN DER RUHR (GERMANY)   *
 *(13) UNIVERSITY OF TROMSO - TROMSO (NORWAY)                                  *
 *(14) UNIVERSITE' DE PAU ET DES PAYS DE L'ADOUR - PAU (FRANCE)                *
 *(15) UNIVERSITY OF CALIFORNIA SANTA BARBARA - SANTA BARBARA (USA)            *
 *(16) CURTIN UNIVERSITY - PERTH (AUSTRALIA)                                   *
 *(17) UNIVERSITY COLLEGE LONDON - LONDON (UK)                                 *
 *(18) UNIVERSITY OF VERMONT - BURLINGTON (USA)                                *
 *                                                                             *
 *******************************************************************************
 EEEEEEEEEE STARTING  DATE 06 08 2025 TIME 16:29:20.0
 INFORMATION **** SET_MPP **** PCRYSTAL CALCULATION

 *******************************************************************************
 NOTT-401 MOF                                                                    
 CRYSTAL - PROPERTIES - TYPE OF CALCULATION :  RESTRICTED CLOSED SHELL
 *******************************************************************************
 KOHN-SHAM HAMILTONIAN

 (EXCHANGE)[CORRELATION] FUNCTIONAL:(BECKE 88)[LEE-YANG-PARR]

 NON-LOCAL WEIGHTING FACTOR (EXCHANGE) =           0.9000
 NON-LOCAL WEIGHTING FACTOR [CORRELATION] =        0.8100

 HYBRID EXCHANGE - PERCENTAGE OF FOCK EXCHANGE    20.0000

 DIRECT LATTICE VECTOR COMPONENTS (ANGSTROM)
       -11.99123   12.00016    6.26007
        11.97607  -11.96913    6.18462
        10.72780   10.70521   -6.20644

 LATTICE PARAMETERS  (ANGSTROM AND DEGREES) - PRIMITIVE CELL
       A          B          C         ALPHA      BETA     GAMMA        VOLUME
   18.08264   18.02598   16.37703     97.4035   97.5730  139.6798    3197.65973
 *******************************************************************************
 N. OF ATOMS PER CELL       131 COULOMB OVERLAP TOL          (T1) 10**   -7
 NUMBER OF SHELLS           994 COULOMB PENETRATION TOL      (T2) 10**   -7
 NUMBER OF AO              2210 EXCHANGE OVERLAP TOL         (T3) 10**   -7
 N. OF ELECTRONS PER CELL   960 EXCHANGE PSEUDO OVP (F(G))   (T4) 10**   -9
 CORE ELECTRONS PER CELL    414 EXCHANGE PSEUDO OVP (P(G))   (T5) 10**  -30
 N. OF SYMMETRY OPERATORS     1 POLE ORDER IN MONO ZONE                   4
 *******************************************************************************
   ATOM N.AT.  SHELL    X(A)      Y(A)      Z(A)      EXAD       N.ELECT.
 *******************************************************************************
    1   21 SC   11    -5.669     1.659    -2.937   3.450E-01      19.446
    2   21 SC   11    -5.691    -1.016     3.276   3.450E-01      19.449
    3   21 SC   11    -7.046     0.088    -5.960   3.450E-01      19.447
    4   21 SC   11    -4.279     0.551     0.277   3.450E-01      19.446
    5   21 SC   11     5.651    -1.662     2.999   3.450E-01      19.434
    6   21 SC   11     5.653     1.010    -3.264   3.450E-01      19.432
    7   21 SC   11     7.062    -0.051     5.961   3.450E-01      19.445
    8   21 SC   11     4.292    -0.520    -0.210   3.450E-01      19.447
    9   16 S    10     0.001     0.415    -1.812   5.207E-01      16.050
   10   16 S    10    -0.615    10.857    -1.760   5.207E-01      16.045
   11   16 S    10     0.025    -0.324     1.914   5.207E-01      16.045
   12   16 S    10     0.609   -10.826     1.770   5.207E-01      16.044
   13   16 S    10     4.807     5.281    -1.312   5.207E-01      16.045
   14   16 S    10    -5.545     6.102    -1.260   5.207E-01      16.044
   15   16 S    10    -4.936    -5.277     1.308   5.207E-01      16.042
   16   16 S    10     5.479    -6.077     1.326   5.207E-01      16.045
   17    8 O     8    -5.687     0.419    -1.261   2.535E-01       8.603
   18    8 O     8    -5.656     0.234     4.947   2.535E-01       8.604
   19    8 O     8    -5.681     0.476     1.818   2.535E-01       8.624
   20    8 O     8    -5.677     0.165    -4.392   2.535E-01       8.619
   21    8 O     8     5.716    -0.424     1.324   2.535E-01       8.624
   22    8 O     8     5.727    -0.306    -4.890   2.535E-01       8.676
   23    8 O     8     5.697    -0.440    -1.764   2.535E-01       8.636
   24    8 O     8     5.701    -0.106     4.383   2.535E-01       8.669
   25    1 H     4    -6.201    -0.394    -1.319   8.000E-01       0.819
   26    1 H     4    -5.153     1.052     4.874   8.000E-01       0.818
   27    1 H     4    -6.536     0.892     1.657   8.000E-01       0.813
   28    1 H     4    -4.842    -0.299    -4.516   8.000E-01       0.814
   29    1 H     4     6.137     0.436     1.432   8.000E-01       0.813
   30    1 H     4     5.577    -1.236    -4.679   8.000E-01       0.803
   31    1 H     4     6.572    -0.790    -1.560   8.000E-01       0.810
   32    1 H     4     5.030     0.589     4.360   8.000E-01       0.796
   33    8 O     8    -3.528     1.516    -3.163   2.535E-01       8.643
   34    8 O     8    -7.830    -0.873     3.022   2.535E-01       8.644
   35    8 O     8    -3.556    -1.004     3.382   2.535E-01       8.618
   36    8 O     8    -7.815     1.606    -2.811   2.535E-01       8.621
   37    8 O     8    -6.871    -2.049    -5.830   2.535E-01       8.639
   38    8 O     8    -4.436     2.685     0.350   2.535E-01       8.632
   39    8 O     8    -4.226    -1.606     0.093   2.535E-01       8.627
   40    8 O     8    -7.088     2.242    -6.187   2.535E-01       8.628
   41    8 O     8     3.503    -1.562     3.251   2.535E-01       8.666
   42    8 O     8     7.814     0.936    -3.035   2.535E-01       8.645
   43    8 O     8     3.526     0.858    -3.501   2.535E-01       8.642
   44    8 O     8     7.795    -1.718     2.919   2.535E-01       8.620
   45    8 O     8     6.803     2.065     5.830   2.535E-01       8.639
   46    8 O     8     4.430    -2.653    -0.307   2.535E-01       8.635
   47    8 O     8     4.304     1.623     0.039   2.535E-01       8.629
   48    8 O     8     7.097    -2.215     6.221   2.535E-01       8.633
   49    8 O     8    -5.360     3.240    -1.612   2.535E-01       8.602
   50    8 O     8    -6.045    -2.565     4.614   2.535E-01       8.597
   51    8 O     8    -5.439    -2.464     1.774   2.535E-01       8.622
   52    8 O     8    -5.955     3.086    -4.446   2.535E-01       8.617
   53    8 O     8    -8.535    -0.192     5.038   2.535E-01       8.599
   54    8 O     8    -2.795     0.798    -1.172   2.535E-01       8.600
   55    8 O     8    -2.802     0.314     1.737   2.535E-01       8.623
   56    8 O     8    -8.556     0.394    -4.542   2.535E-01       8.618
   57    8 O     8     5.333    -3.219     1.660   2.535E-01       8.598
   58    8 O     8     5.906     2.543    -4.639   2.535E-01       8.596
   59    8 O     8     5.272     2.461    -1.802   2.535E-01       8.613
   60    8 O     8     5.833    -3.041     4.569   2.535E-01       8.622
   61    8 O     8     8.551     0.292    -5.054   2.535E-01       8.597
   62    8 O     8     2.829    -0.772     1.265   2.535E-01       8.594
   63    8 O     8     2.834    -0.205    -1.660   2.535E-01       8.604
   64    8 O     8     8.563    -0.402     4.564   2.535E-01       8.614
   65    6 C     8    -2.603     1.151    -2.376   8.792E-01       5.421
   66    6 C     8    -8.744    -0.544     3.837   8.792E-01       5.420
   67    6 C     8    -2.617    -0.495     2.701   8.792E-01       5.424
   68    6 C     8    -8.747     1.143    -3.532   8.792E-01       5.426
   69    6 C     8    -6.489    -2.869     5.765   8.792E-01       5.422
   70    6 C     8    -4.871     3.538    -0.479   8.792E-01       5.421
   71    6 C     8    -4.716    -2.583     0.735   8.792E-01       5.423
   72    6 C     8    -6.647     3.214    -5.505   8.792E-01       5.424
   73    6 C     8     2.599    -1.175     2.445   8.792E-01       5.423
   74    6 C     8     8.740     0.607    -3.838   8.792E-01       5.421
   75    6 C     8     2.608     0.464    -2.719   8.792E-01       5.431
   76    6 C     8     8.738    -1.203     3.589   8.792E-01       5.423
   77    6 C     8     6.392     2.874    -5.766   8.792E-01       5.419
   78    6 C     8     4.854    -3.513     0.520   8.792E-01       5.424
   79    6 C     8     4.676     2.593    -0.686   8.792E-01       5.423
   80    6 C     8     6.600    -3.185     5.573   8.792E-01       5.424
   81    6 C     8    -1.220     1.118    -2.852   8.792E-01       5.939
   82    6 C     8   -10.137    -0.552     3.393   8.792E-01       5.939
   83    6 C     8    -1.236    -0.866     2.999   8.792E-01       5.941
   84    6 C     8   -10.135     1.489    -3.221   8.792E-01       5.939
   85    6 C     8     4.204     6.411    -0.118   8.792E-01       5.943
   86    6 C     8    -4.826     4.961    -0.143   8.792E-01       5.941
   87    6 C     8    -4.441    -3.948     0.283   8.792E-01       5.938
   88    6 C     8     5.031    -7.387     0.257   8.792E-01       5.939
   89    6 C     8     1.204    -1.184     2.879   8.792E-01       5.939
   90    6 C     8    10.127     0.565    -3.372   8.792E-01       5.942
   91    6 C     8     1.220     0.800    -3.010   8.792E-01       5.940
   92    6 C     8    10.121    -1.541     3.268   8.792E-01       5.938
   93    6 C     8    -4.274    -6.404     0.143   8.792E-01       5.944
   94    6 C     8     4.810    -4.933     0.181   8.792E-01       5.944
   95    6 C     8     4.410     3.958    -0.238   8.792E-01       5.942
   96    6 C     8    -5.059     7.415    -0.209   8.792E-01       5.942
   97    6 C     8    -0.697     1.598    -4.020   8.792E-01       5.984
   98    6 C     8     0.049     9.640    -3.957   8.792E-01       5.984
   99    6 C     8    -0.755    -1.657     4.004   8.792E-01       5.976
  100    6 C     8     1.328    -9.877     4.077   8.792E-01       5.983
  101    6 C     8     3.741     5.786     1.005   8.792E-01       5.982
  102    6 C     8    -4.267     5.576     0.941   8.792E-01       5.982
  103    6 C     8    -3.814    -4.373    -0.854   8.792E-01       5.983
  104    6 C     8     4.413    -6.945    -0.879   8.792E-01       5.983
  105    6 C     8     0.635    -1.842     3.934   8.792E-01       5.967
  106    6 C     8    -0.064    -9.695     4.009   8.792E-01       5.984
  107    6 C     8     0.696     1.436    -4.102   8.792E-01       5.954
  108    6 C     8    -1.348     9.785    -4.011   8.792E-01       5.983
  109    6 C     8    -3.725    -5.772    -0.937   8.792E-01       5.981
  110    6 C     8     4.292    -5.546    -0.925   8.792E-01       5.982
  111    6 C     8     3.854     4.387     0.935   8.792E-01       5.983
  112    6 C     8    -4.392     6.975     0.899   8.792E-01       5.982
  113    1 H     4    -1.305     2.071    -4.777   8.000E-01       0.949
  114    1 H     4   -10.080    -1.543     1.487   8.000E-01       0.949
  115    1 H     4    -1.395    -2.097     4.755   8.000E-01       0.947
  116    1 H     4   -10.029     2.388    -1.273   8.000E-01       0.951
  117    1 H     4     3.327     6.328     1.842   8.000E-01       0.949
  118    1 H     4    -3.775     5.025     1.729   8.000E-01       0.947
  119    1 H     4    -3.434    -3.687    -1.597   8.000E-01       0.949
  120    1 H     4     4.060    -7.619    -1.646   8.000E-01       0.950
  121    1 H     4     1.200    -2.466     4.609   8.000E-01       0.942
  122    1 H     4    10.066     1.468    -1.422   8.000E-01       0.952
  123    1 H     4     1.302     1.766    -4.933   8.000E-01       0.934
  124    1 H     4    -1.973     9.436    -4.820   8.000E-01       0.951
  125    1 H     4    -3.265    -6.312    -1.753   8.000E-01       0.950
  126    1 H     4     3.834    -4.994    -1.733   8.000E-01       0.949
  127    1 H     4     3.539     3.705     1.711   8.000E-01       0.945
  128    1 H     4    -4.010     7.648     1.652   8.000E-01       0.952
  129   16 S    10     3.086    -0.375     6.064   5.207E-01      15.446
  130    8 O     8     1.809    -0.907    -5.785   2.535E-01       8.273
  131    8 O     8     3.017     0.986     5.403   2.535E-01       8.300
 *******************************************************************************
 DE(K)                   0.000E+00  ENERGY LEVEL SHIFTING        0.00000
 TOTAL ENERGY -1.4671483337447E+04  CONVERGENCE ON ENER       -6.106E-09
 KIN. ENERGY   1.4642379135403E+04  VIR. COEFF.           1.03232942E+00
 N. OF SCF CYCLES               20  FERMI ENERGY              -0.237E+00
 WEIGHT OF F(I) IN F(I+1)      80
 SHRINK. FACT.(MONKH.)     2  2  2  SHRINKING FACTOR(GILAT NET)        2
 NUMBER OF K POINTS IN THE IBZ   8  CELL VOLUME (A.U.)      21665.356235
 *******************************************************************************

 GCALCO - MAX INDICES DIRECT LATTICE VECTOR    16    16    12
 NO.OF VECTORS CREATED 6999 STARS 3500 RMAX   330.58371 BOHR
 TTTTTTTTTTTTTTTTTTTTTTTTTTTTTT gordsh1     TELAPSE        0.08 TCPU        0.07

 MATRIX SIZE: P(G) 6108366, F(G)  572376, P(G) IRR 3058864, F(G) IRR  574756
 MAX G-VECTOR INDEX FOR 1- AND 2-ELECTRON INTEGRALS  73


 CAPPA:IS1  2;IS2  2;IS3  2; K PTS MONK NET   8; SYMMOPS:K SPACE   2;G SPACE   1

 *******************************************************************************
 *                                                                             *
 *                              T O P O N D  2 0 2 1                                                                *
 *                                                                             *
 *           AN ELECTRON DENSITY TOPOLOGICAL ANALYSIS PROGRAM FOR              *
 *                 SYSTEMS PERIODIC IN N (N=0-3) DIMENSIONS                    *
 *                                                                             *
 *               USER MANUAL BY CARLO GATTI AND SILVIA CASASSA                 *
 *                                                                             *
 *            CNR-ISTM, ISTITUTO DI SCIENZE E TECNOLOGIE MOLECOLARI            *
 *                   VIA GOLGI 19  - I-20133 MILANO - ITALIA                   *
 *                     E-MAIL: c.gatti@istm.cnr.it                             *
 *                                                                             *
 *******************************************************************************

  TOPOND PARAMETER 

  LIM016 [INF24]        =       1000
  LIM015 [INF20]        =        994
  LIM035 [LIM016*INF5]  =    3500000
  NTOMAX [LIM016*INF5]  =    3500000
  INF79  [INF79]        =       6999
  MAXGSTAR [INF2*INF5]  =        384

 *******************************************************************************
 *******************************************************************************
 *                                                                             *
 *               TOPOND GENERALISATION TO F AND G ATOMIC ORBITALS              *
 *                                                                             *
 *                     BY ALESSANDRO COSSARD, JACQUES DESMARAIS                *
 *                            AND ALESSANDRO ERBA                              *
 *                                                                             *
 *      PLEASE CITE: A. Cossard, J. K. Desmarais, S.Casassa, C. Gatti and      *
 *            A. Erba, J. Phys. Chem. Lett., 12, 1862-1868 (2021)              *
 *                                                                             *
 *******************************************************************************

CRYSTAL INFORMATION ON THE REFERENCE SYSTEM:

 DIRECT LATTICE VECTOR COMPONENTS (BOHR)
       -22.66015   22.67702   11.82981
        22.63149  -22.61838   11.68724
        20.27260   20.22992  -11.72848

 LATTICE PARAMETERS  (BOHR AND DEGREES) - PRIMITIVE CELL
        A           B           C        ALPHA        BETA       GAMMA       VOLUME
    34.17125    34.06416    30.94810    97.40347    97.57299   139.67985 21578.87776
 *******************************************************************************
 N. OF ATOMS PER CELL      131  COULOMB OVERLAP TOL         (T1) 10** -7
 NUMBER OF SHELLS          994  COULOMB PENETRATION TOL     (T2) 10** -7
 NUMBER OF AO             2210  EXCHANGE OVERLAP TOL        (T3) 10** -7
 N. OF ELECTRONS PER CELL   960 EXCHANGE PSEUDO OVP (F(G))  (T4) 10** -9
 CORE ELECTRONS PER CELL   414  EXCHANGE PSEUDO OVP (P(G))  (T5) 10**-30
 N. OF SYMMETRY OPERATORS    1  POLE ORDER IN MONO ZONE                4
 *******************************************************************************
  ATOM  SHEL    X(AU)     Y(AU)     Z(AU)
 *******************************************************************************
   21 SC  11   -10.713     3.135    -5.550
   21 SC  11   -10.754    -1.919     6.190
   21 SC  11   -13.315     0.166   -11.262
   21 SC  11    -8.086     1.040     0.524
   21 SC  11    10.679    -3.141     5.667
   21 SC  11    10.682     1.909    -6.168
   21 SC  11    13.345    -0.097    11.265
   21 SC  11     8.110    -0.983    -0.397
   16 S   10     0.001     0.783    -3.425
   16 S   10    -1.162    20.517    -3.326
   16 S   10     0.047    -0.611     3.616
   16 S   10     1.150   -20.459     3.344
   16 S   10     9.084     9.980    -2.479
   16 S   10   -10.478    11.532    -2.380
   16 S   10    -9.328    -9.972     2.471
   16 S   10    10.353   -11.483     2.505
    8 O    8   -10.746     0.791    -2.383
    8 O    8   -10.688     0.442     9.348
    8 O    8   -10.735     0.900     3.435
    8 O    8   -10.728     0.313    -8.299
    8 O    8    10.801    -0.802     2.502
    8 O    8    10.823    -0.579    -9.240
    8 O    8    10.765    -0.831    -3.333
    8 O    8    10.774    -0.200     8.282
    1 H    4   -11.718    -0.744    -2.493
    1 H    4    -9.738     1.989     9.210
    1 H    4   -12.350     1.685     3.131
    1 H    4    -9.150    -0.566    -8.533
    1 H    4    11.597     0.823     2.705
    1 H    4    10.539    -2.336    -8.842
    1 H    4    12.419    -1.493    -2.949
    1 H    4     9.504     1.113     8.239
    8 O    8    -6.667     2.866    -5.978
    8 O    8   -14.797    -1.649     5.712
    8 O    8    -6.720    -1.896     6.391
    8 O    8   -14.768     3.034    -5.312
    8 O    8   -12.984    -3.872   -11.017
    8 O    8    -8.383     5.075     0.662
    8 O    8    -7.986    -3.036     0.176
    8 O    8   -13.394     4.237   -11.691
    8 O    8     6.620    -2.951     6.143
    8 O    8    14.766     1.768    -5.736
    8 O    8     6.664     1.622    -6.616
    8 O    8    14.731    -3.246     5.516
    8 O    8    12.856     3.902    11.016
    8 O    8     8.372    -5.013    -0.581
    8 O    8     8.132     3.067     0.073
    8 O    8    13.411    -4.186    11.756
    8 O    8   -10.128     6.122    -3.047
    8 O    8   -11.423    -4.848     8.719
    8 O    8   -10.277    -4.656     3.351
    8 O    8   -11.252     5.832    -8.402
    8 O    8   -16.129    -0.363     9.521
    8 O    8    -5.282     1.508    -2.214
    8 O    8    -5.296     0.594     3.283
    8 O    8   -16.168     0.745    -8.584
    8 O    8    10.078    -6.083     3.138
    8 O    8    11.161     4.806    -8.767
    8 O    8     9.962     4.650    -3.405
    8 O    8    11.023    -5.748     8.634
    8 O    8    16.159     0.552    -9.551
    8 O    8     5.346    -1.459     2.390
    8 O    8     5.355    -0.388    -3.136
    8 O    8    16.182    -0.760     8.624
    6 C    8    -4.919     2.175    -4.490
    6 C    8   -16.524    -1.029     7.250
    6 C    8    -4.945    -0.936     5.104
    6 C    8   -16.529     2.159    -6.675
    6 C    8   -12.262    -5.422    10.894
    6 C    8    -9.204     6.686    -0.905
    6 C    8    -8.911    -4.881     1.389
    6 C    8   -12.560     6.073   -10.402
    6 C    8     4.911    -2.220     4.620
    6 C    8    16.515     1.148    -7.253
    6 C    8     4.928     0.876    -5.138
    6 C    8    16.512    -2.274     6.783
    6 C    8    12.079     5.431   -10.895
    6 C    8     9.173    -6.639     0.983
    6 C    8     8.836     4.900    -1.296
    6 C    8    12.472    -6.019    10.532
    6 C    8    -2.305     2.113    -5.390
    6 C    8   -19.157    -1.044     6.413
    6 C    8    -2.336    -1.637     5.668
    6 C    8   -19.153     2.813    -6.087
    6 C    8     7.944    12.115    -0.224
    6 C    8    -9.120     9.376    -0.271
    6 C    8    -8.392    -7.461     0.535
    6 C    8     9.508   -13.959     0.485
    6 C    8     2.276    -2.237     5.440
    6 C    8    19.137     1.068    -6.372
    6 C    8     2.305     1.512    -5.688
    6 C    8    19.126    -2.913     6.175
    6 C    8    -8.076   -12.102     0.271
    6 C    8     9.089    -9.322     0.343
    6 C    8     8.334     7.480    -0.450
    6 C    8    -9.561    14.013    -0.395
    6 C    8    -1.317     3.019    -7.596
    6 C    8     0.092    18.217    -7.478
    6 C    8    -1.428    -3.131     7.567
    6 C    8     2.510   -18.665     7.704
    6 C    8     7.069    10.933     1.898
    6 C    8    -8.064    10.537     1.779
    6 C    8    -7.208    -8.263    -1.614
    6 C    8     8.339   -13.124    -1.661
    6 C    8     1.200    -3.482     7.433
    6 C    8    -0.120   -18.320     7.576
    6 C    8     1.315     2.714    -7.753
    6 C    8    -2.547    18.491    -7.579
    6 C    8    -7.039   -10.908    -1.771
    6 C    8     8.111   -10.480    -1.747
    6 C    8     7.283     8.290     1.766
    6 C    8    -8.300    13.180     1.700
    1 H    4    -2.466     3.913    -9.027
    1 H    4   -19.049    -2.916     2.811
    1 H    4    -2.636    -3.962     8.986
    1 H    4   -18.953     4.513    -2.405
    1 H    4     6.288    11.958     3.482
    1 H    4    -7.133     9.496     3.268
    1 H    4    -6.489    -6.967    -3.018
    1 H    4     7.673   -14.397    -3.111
    1 H    4     2.267    -4.660     8.710
    1 H    4    19.022     2.774    -2.688
    1 H    4     2.460     3.336    -9.321
    1 H    4    -3.728    17.832    -9.109
    1 H    4    -6.171   -11.927    -3.312
    1 H    4     7.245    -9.437    -3.274
    1 H    4     6.688     7.001     3.233
    1 H    4    -7.577    14.453     3.122
   16 S   10     5.831    -0.708    11.459
    8 O    8     3.418    -1.713   -10.931
    8 O    8     5.701     1.863    10.210
 *******************************************************************************
 DE(K)                  0.000E+00  CONVERGENCE ON EIGENVALUES   10**-20
 WEIGHT OF F(I) IN F(I+1)     80%  CONVERGENCE ON ENERGY        10**- 7
 TOTAL ENERGY     -1.46714833E+04  FERMI ENERGY              -2.372E-01
 KIN. ENERGY       1.46423791E+04  VIR. COEFF.           1.03232942E+00
 SHRINK. FACT.(MONKH.)    2  2  2  STARS FOR FOURIER EXP. OF E(K)     1
 SHRINKING FACTOR (GILAT NET)   2  NUMBER OF K POINTS IN THE IBZ      8
 CELL VOLUME (A.U.)       21665.356N. OF SCF CYCLES                  20
 ENERGY LEVEL SHIFTING    0.00000
 *******************************************************************************


***** T O P O L O G I C A L  A N A L I S Y S : P L O T 2 D   S E C T I O N  ****


 COORD. OF ATOMS (POINTS) A,B,C     : 9.504E+00  1.113E+00  8.239E+00
                                      5.701E+00  1.863E+00  1.021E+01
                                      5.831E+00 -7.080E-01  1.146E+01
 ORIGIN AT ( AU; SYSTEM REF. FRAME) : 7.603E+00  1.488E+00  9.225E+00
 ISHFT                              : 3
 ICONT                              : 1
 CLUSTER BUILDING/NUMBER OF STARS   :30
 CLUSTER BUILDING/SPHERE RADIUS(ANG): 1.500E+01

 *** CLUSTERS AROUND A,B,C ATOMS (POINTS) ***
(DIST. REFERS TO THE CENTER OF THE CLUSTER)

 ATOM (POINT) N.     1 CLUSTER OF    31 ATOMS
 SEQ. NO.
 NEW  OLD  CELL    AT. NO.        COORD. (AU)           DISTANCE (ANG)
     1      24       0     0     0       8     10.774  -0.200   8.282          0.966
     2     131       0     0     0       8      5.701   1.863  10.210          2.302
     3       7       0     0     0      21     13.345  -0.097  11.265          2.665
     4       5       0     0     0      21     10.679  -3.141   5.667          2.703
     5      45       0     0     0       8     12.856   3.902  11.016          2.736
     6     129       0     0     0      16      5.831  -0.708  11.459          2.759
     7      41       0     0     0       8      6.620  -2.951   6.143          2.861
     8      29       0     0     0       1     11.597   0.823   2.705          3.134
     9      21       0     0     0       8     10.801  -0.802   2.502          3.273
    10      22       1     1     0       8     10.794  -0.521  14.277          3.380
    11      77       1     1     0       6     12.051   5.489  12.622          3.544
    12      73       0     0     0       6      4.911  -2.220   4.620          3.562
    13      64       0     0     0       8     16.182  -0.760   8.624          3.676
    14      60       0     0     0       8     11.023  -5.748   8.634          3.724
    15      44       0     0     0       8     14.731  -3.246   5.516          3.879
    16      30       1     1     0       1     10.510  -2.278  14.675          3.886
    17      48       0     0     0       8     13.411  -4.186  11.756          3.950
    18      62       0     0     0       8      5.346  -1.459   2.390          4.034
    19      58       1     1     0       8     11.133   4.865  14.750          4.069
    20      76       0     0     0       6     16.512  -2.274   6.783          4.190
    21     130       1     1     0       8      3.389  -1.655  12.586          4.232
    22      80       0     0     0       6     12.472  -6.019  10.532          4.264
    23     127       0     0     0       1      6.688   7.001   3.233          4.353
    24      89       0     0     0       6      2.276  -2.237   5.440          4.469
    25      93       1     1     1       6     12.168   8.187  12.059          4.482
    26      47       0     0     0       8      8.132   3.067   0.073          4.502
    27     125       1     1     1       1     14.073   8.361   8.476          4.536
    28      61       1     1     0       8     16.130   0.610  13.966          4.642
    29      57       0     0     0       8     10.078  -6.083   3.138          4.678
    30       8       0     0     0      21      8.110  -0.983  -0.397          4.760

 ATOM (POINT) N.     2 CLUSTER OF    31 ATOMS
 SEQ. NO.
 NEW  OLD  CELL    AT. NO.        COORD. (AU)           DISTANCE (ANG)
     1     129       0     0     0      16      5.831  -0.708  11.459          1.514
     2      32       0     0     0       1      9.504   1.113   8.239          2.302
     3     130       1     1     0       8      3.389  -1.655  12.586          2.558
     4     123       1     1     0       1      2.432   3.395  14.196          2.846
     5      24       0     0     0       8     10.774  -0.200   8.282          3.072
     6      41       0     0     0       8      6.620  -2.951   6.143          3.370
     7      43       1     1     0       8      6.635   1.680  16.901          3.576
     8      22       1     1     0       8     10.794  -0.521  14.277          3.673
     9      73       0     0     0       6      4.911  -2.220   4.620          3.687
    10     107       1     1     0       6      1.287   2.773  15.765          3.785
    11      89       0     0     0       6      2.276  -2.237   5.440          3.790
    12      45       0     0     0       8     12.856   3.902  11.016          3.960
    13     105       0     0     0       6      1.200  -3.482   7.433          3.979
    14     121       0     0     0       1      2.267  -4.660   8.710          3.981
    15      58       1     1     0       8     11.133   4.865  14.750          4.069
    16      77       1     1     0       6     12.051   5.489  12.622          4.075
    17      30       1     1     0       1     10.510  -2.278  14.675          4.106
    18       7       0     0     0      21     13.345  -0.097  11.265          4.213
    19      75       1     1     0       6      4.899   0.935  18.379          4.371
    20      91       1     1     0       6      2.276   1.571  17.829          4.423
    21       5       0     0     0      21     10.679  -3.141   5.667          4.442
    22      62       0     0     0       8      5.346  -1.459   2.390          4.500
    23       6       1     1     0      21     10.653   1.967  17.349          4.598
    24     127       0     0     0       1      6.688   7.001   3.233          4.615
    25      11       0     0     0      16      0.047  -0.611   3.616          4.779
    26      99       0     0     0       6     -1.428  -3.131   7.567          4.813
    27      97       1     1     0       6     -1.345   3.078  15.921          4.842
    28      93       1     1     1       6     12.168   8.187  12.059          4.885
    29      60       0     0     0       8     11.023  -5.748   8.634          4.985
    30     113       1     1     0       1     -2.495   3.972  14.490          5.018

 ATOM (POINT) N.     3 CLUSTER OF    32 ATOMS
 SEQ. NO.
 NEW  OLD  CELL    AT. NO.        COORD. (AU)           DISTANCE (ANG)
     1     130       1     1     0       8      3.389  -1.655  12.586          1.509
     2     131       0     0     0       8      5.701   1.863  10.210          1.514
     3      32       0     0     0       1      9.504   1.113   8.239          2.759
     4      22       1     1     0       8     10.794  -0.521  14.277          3.022
     5      41       0     0     0       8      6.620  -2.951   6.143          3.082
     6      30       1     1     0       1     10.510  -2.278  14.675          3.117
     7      24       0     0     0       8     10.774  -0.200   8.282          3.121
     8     121       0     0     0       1      2.267  -4.660   8.710          3.170
     9     123       1     1     0       1      2.432   3.395  14.196          3.170
    10      43       1     1     0       8      6.635   1.680  16.901          3.173
    11     105       0     0     0       6      1.200  -3.482   7.433          3.563
    12      73       0     0     0       6      4.911  -2.220   4.620          3.738
    13      89       0     0     0       6      2.276  -2.237   5.440          3.787
    14     107       1     1     0       6      1.287   2.773  15.765          3.790
    15      75       1     1     0       6      4.899   0.935  18.379          3.796
    16       7       0     0     0      21     13.345  -0.097  11.265          3.990
    17      91       1     1     0       6      2.276   1.571  17.829          4.044
    18      60       0     0     0       8     11.023  -5.748   8.634          4.110
    19       5       0     0     0      21     10.679  -3.141   5.667          4.200
    20       6       1     1     0      21     10.653   1.967  17.349          4.270
    21      48       0     0     0       8     13.411  -4.186  11.756          4.416
    22      58       1     1     0       8     11.133   4.865  14.750          4.427
    23      45       0     0     0       8     12.856   3.902  11.016          4.453
    24      80       0     0     0       6     12.472  -6.019  10.532          4.527
    25      99       0     0     0       6     -1.428  -3.131   7.567          4.543
    26      77       1     1     0       6     12.051   5.489  12.622          4.687
    27      63       1     1     0       8      5.326  -0.329  20.381          4.733
    28      62       0     0     0       8      5.346  -1.459   2.390          4.823
    29      97       1     1     0       6     -1.345   3.078  15.921          4.900
    30     115       0     0     0       1     -2.636  -3.962   8.986          4.975
    31      11       0     0     0      16      0.047  -0.611   3.616          5.157

 *** ATOMS (POINTS): AT. N. AND TRASFORMED COORD.(AU) IN THE PLOT REF. FRAME ***

      1      -2.1747E+00      -6.6111E-17      -1.1268E-16
      8       2.1747E+00       6.6111E-17       1.1268E-16
     16       2.1835E+00       2.8613E+00      -4.3001E-16
      8      -3.4917E+00       1.2599E+00       1.1735E-01
     21      -4.3704E+00       2.5898E+00       3.7196E+00
     21      -5.1013E+00       2.7617E+00      -3.1467E+00
      8      -3.3658E+00      -1.1373E+00       4.9003E+00
      8      -1.3026E+00       2.6026E+00      -4.6580E+00
      1      -6.5630E+00      -2.0469E+00      -3.4115E+00
      8      -6.2388E+00      -7.1258E-01      -4.6081E+00
      8      -8.4777E-01       4.1585E+00       4.6623E+00
      6      -1.6604E+00      -1.9043E+00       6.3995E+00
      6      -3.7219E-01       1.2002E+00      -6.3732E+00
      8      -8.1629E+00       2.1737E+00       2.7675E+00
      8      -4.5063E+00       6.4131E+00      -1.7211E+00
      8      -8.7316E+00       2.9865E+00      -1.3505E+00
      1      -7.2211E-01       5.8977E+00       4.1276E+00
      8      -4.9112E+00       6.4828E+00       2.4882E+00
      8      -1.6320E+00      -4.3423E-01      -7.5923E+00
      8      -6.2733E-04      -4.6079E-01       7.3611E+00
      6      -9.5475E+00       2.7491E+00       8.8567E-01
      8       4.6662E+00       4.0846E+00      -6.8287E-01
      6      -4.9611E+00       7.5531E+00       3.4489E-01
      1      -9.6471E-01      -7.6080E+00      -2.8833E+00
      6       2.3013E+00       1.4445E+00      -7.0133E+00
      6      -1.5527E+00      -4.5684E+00       7.1041E+00
      8      -4.3388E+00      -5.3768E+00      -6.2282E+00
      1      -4.8129E+00      -6.1930E+00       5.3064E+00
      8      -5.4601E+00       3.2640E+00       7.4498E+00
      8      -6.2290E+00       4.2774E+00      -6.5881E+00
     21      -5.2306E+00      -1.9415E+00      -8.2352E+00
      1       7.1041E+00       1.9935E-01       2.1401E+00
      8       4.3581E+00       3.1209E+00       5.5825E+00
      6       8.7092E+00       1.3861E+00       2.5573E+00
      6       3.9305E+00       3.3795E+00      -6.4828E+00
      1       3.3726E+00       5.0452E+00      -5.4493E+00
      6       6.4181E+00       4.3507E+00       5.5945E+00
      6       8.5721E+00       3.4133E+00       4.1574E+00
     21       1.0967E+00       3.2518E+00       7.9851E+00
     16       3.7037E+00      -9.1797E-01      -8.8534E+00
      6       6.3497E+00       2.9951E+00      -7.5056E+00
      6       1.1135E+01       1.0531E+00       1.5315E+00
      1       1.1645E+01      -4.2885E-01       2.2384E-01
      8       6.7339E+00       6.3789E+00       6.8493E+00
      1       7.9064E+00       4.3015E+00      -7.3195E+00

 *** PLOT INFORMATION ***

 EULER ANGLES                       : 1.338E+02  3.893E+01  5.017E+01
 ROTAT. MATRIX                      :-8.746E-01  1.724E-01  4.532E-01
                                      4.826E-02 -8.990E-01  4.352E-01
                                      4.825E-01  4.025E-01  7.779E-01
 COORD.,AT. N., CELL OF ATOMS A,B,C : 9.504E+00  1.113E+00  8.239E+00      1      0     0     0
                                      5.701E+00  1.863E+00  1.021E+01      8      0     0     0
                                      5.831E+00 -7.080E-01  1.146E+01     16  0 0 0
 ORIGIN AT ( AU; SYSTEM REF. FRAME) : 7.603E+00  1.488E+00  9.225E+00
 X AXIS RANGES AND INCREMENTS (ANG) :-4.000E+00  4.000E+00  5.000E-02
 Y AXIS RANGES AND INCREMENTS (ANG) :-4.000E+00  4.000E+00  5.000E-02
 IPSIZE(A3=1,A4=2), SCALE(ANG/CM)   :     2          5.500E-01
 TOLERA (ANG), TR1 (ANG), IPLANE    : 2.000E+00  1.000E-04   0
 THR (ANG), IL(K),K=1,3             : 2.200E+00   1   1   1
 N. GRHO TRAJ. FROM EACH 3,-3 CP    :36
 PLOTTED FUNCTIONS                  : ELECTRON DENSITY RHO                      
                                      SPIN DENSITY (RHOA-RHOB)                  
                                      LAPLACIAN OF RHO                          
                                      NEGATIVE OF THE LAPLACIAN OF RHO          
                                      MAGNITUDE OF GRAD(RHO)                    
                                      HAMILTONIAN KINETIC ENERGY K(R)           
                                      LAGRANGIAN KINETIC ENERGY G(R)            
                                      VIRIAL FIELD DENSITY                      
                                      BECKE ELECTRON LOCALIZATION FUNCTION      
                                      GRAD(RHO) TRAJECTORIES                    
                                      MOLECULAR GRAPH                           
                                      GRAD(RHO) TRAJECTORIES AND MOLECULAR GRAPH
 FUNCTION FILES                     : SURFRHOO.DAT                    
                                      SURFSPDE.DAT                    
                                      SURFLAPP.DAT                    
                                      SURFLAPM.DAT                    
                                      SURFGRHO.DAT                    
                                      SURFKKIN.DAT                    
                                      SURFGKIN.DAT                    
                                      SURFVIRI.DAT                    
                                      SURFELFB.DAT                    
                                      TRAJGRAD.DAT                    
                                      MOLGRAPH.DAT                    
                                      TRAJMOLG.DAT                    
 INFORM. FILE                       : P2DCRYIN.DAT                    
 TTTTTTTTTTTTTTTTTTTTTTTTTTTTTT PL2D        TELAPSE     1554.09 TCPU     1365.88
 TTTTTTTTTTTTTTTTTTTTTTTTTTTTTT END         TELAPSE     1554.09 TCPU     1365.88
 EEEEEEEEEE TERMINATION  DATE 06 08 2025 TIME 16:55:14.1
