/home/test/junior_crystal/TEST_CRY21_vs_CRY17/SVN_PUB_21_10_2020/bin/Linux-ifort_openmpi-3.1.4-icc_i64_clut/std/Pproperties
/scratch/modalis/tmp_p81776
script started on node101
NEWK
8 8
0 0
ANBD
0 0
0.01
END
END
************************************************
ANOTHER DROLLERY FILLED RUN OF THE PCRYSTAL CODE!
************************************************
Wed 09 Jul 2025 10:45:43 AM CEST
 PROCESS            0  OF            1  WORKING

         
 *******************************************************************************
 *                                                                             *
 *                               CRYSTAL17                                     *
 *                      public : 1.0.2 - March 1st, 2018                       *
 *                       HTTP://WWW.CRYSTAL.UNITO.IT                           *
 *                                                                             *
 *                              MAIN AUTHORS                                   *
 *                                                                             *
 *  R. DOVESI(1,11), V.R. SAUNDERS(2), C. ROETTI(1,11), R. ORLANDO(1,11),      *
 *  C.M. ZICOVICH-WILSON(1,3), F. PASCALE(4), B. CIVALLERI(1,11),              *
 *  K. DOLL(5), N.M. HARRISON(2,6), I.J. BUSH(7), Ph. D'ARCO(8),               *
 *  M. LLUNELL(9), M. CAUSA'(10), Y. NOEL(8), L. MASCHIO(1,11), A. ERBA(1,11)  *
 *  M. RE'RAT(14), S. CASASSA(1,11)                                            *
 *                                                                             *
 *        CONTRIBUTIONS TO THE CODE HAVE ALSO BEEN GIVEN BY                    *
 *                                                                             *
 *  M. FERRABONE(1,11), M. DE LA PIERRE(1,11), M. FERRERO(1,11),               *
 *  J. BAIMA(1,11), E. ALBANESE(1,11), M.F. PEINTINGER(12), R. BAST(13),       *
 *  B. KIRTMAN(15), V. LACIVITA(1,11), R. DEMICHELIS(1,16)                     *
 *  G. BRANDEBURG(17), S. SALUSTRO(1,11), G. SANSONE(1,11)                     *
 *  M.T. RUGGIERO(18)                                                          *
 *                                                                             *
 * (1) THEORETICAL CHEMISTRY GROUP - UNIVERSITA' DI TORINO - TORINO (ITALY)    *
 * (2) COMPUTATIONAL SCIENCE & ENGINEERING DEPARTMENT - STFC DARESBURY (UK)    *
 * (3) UNIVERSIDAD AUTONOMA DEL ESTADO DE MORELOS - CUERNAVACA (MEXICO)        *
 * (4) UNIVERSITE' DE LORRAINE - NANCY (FRANCE)                                *
 * (5) UNIVERSITAET STUTTGART- STUTTGART (GERMANY)                             *
 * (6) IMPERIAL COLLEGE - LONDON (UK)                                          *
 * (7) OXFORD E-RESEARCH CENTRE - OXFORD (UK)                                  *
 * (8) UPMC - SORBONNE UNIVERSITES - PARIS (FRANCE)                            *
 * (9) UNIVERSIDAD DE BARCELONA - BARCELONA (SPAIN)                            *
 *(10) UNIVERSITA' DI NAPOLI "FEDERICO II" - NAPOLI (ITALY)                    *
 *(11) NIS - NANOSTRUCTURED INTERFACES AND SURFACES - TORINO (ITALY)           *
 *(12) MPI FUER CHEMISCHE ENERGIEKONVERSION - MUELHEIM AN DER RUHR (GERMANY)   *
 *(13) UNIVERSITY OF TROMSO - TROMSO (NORWAY)                                  *
 *(14) UNIVERSITE' DE PAU ET DES PAYS DE L'ADOUR - PAU (FRANCE)                *
 *(15) UNIVERSITY OF CALIFORNIA SANTA BARBARA - SANTA BARBARA (USA)            *
 *(16) CURTIN UNIVERSITY - PERTH (AUSTRALIA)                                   *
 *(17) UNIVERSITY COLLEGE LONDON - LONDON (UK)                                 *
 *(18) CAMBRIDGE UNIVERSITY - CAMBRIDGE (UK)                                   *
 *                                                                             *
 *******************************************************************************
 EEEEEEEEEE STARTING  DATE 09 07 2025 TIME 10:45:43.4

 *******************************************************************************
 MGO                                                                             
 CRYSTAL - PROPERTIES - TYPE OF CALCULATION :  RESTRICTED CLOSED SHELL
 *******************************************************************************
 KOHN-SHAM HAMILTONIAN

 (EXCHANGE)[CORRELATION] FUNCTIONAL:(PERDEW-BURKE-ERNZERHOF)[PERDEW-BURKE-ERNZERHOF]


 HYBRID EXCHANGE - PERCENTAGE OF FOCK EXCHANGE    25.0000

 DIRECT LATTICE VECTOR COMPONENTS (ANGSTROM)
         0.00000    2.10500    2.10500
         2.10500    0.00000    2.10500
         2.10500    2.10500    0.00000

 LATTICE PARAMETERS  (ANGSTROM AND DEGREES) - PRIMITIVE CELL
       A          B          C         ALPHA      BETA     GAMMA        VOLUME
    2.97692    2.97692    2.97692     60.0000   60.0000   60.0000      18.65462
 *******************************************************************************
 N. OF ATOMS PER CELL         2 COULOMB OVERLAP TOL          (T1) 10**   -8
 NUMBER OF SHELLS             8 COULOMB PENETRATION TOL      (T2) 10**   -8
 NUMBER OF AO                26 EXCHANGE OVERLAP TOL         (T3) 10**   -8
 N. OF ELECTRONS PER CELL    20 EXCHANGE PSEUDO OVP (F(G))   (T4) 10**   -8
 CORE ELECTRONS PER CELL     12 EXCHANGE PSEUDO OVP (P(G))   (T5) 10**  -16
 N. OF SYMMETRY OPERATORS    48 POLE ORDER IN MONO ZONE                   4
 *******************************************************************************
   ATOM N.AT.  SHELL    X(A)      Y(A)      Z(A)      EXAD       N.ELECT.
 *******************************************************************************
    1   12 MG    4     0.000     0.000     0.000   2.800E-01      10.133
    2    8 O     4     2.105     2.105     2.105   1.843E-01       9.867
 *******************************************************************************
 DE(K)                   0.000E+00  ENERGY LEVEL SHIFTING        0.00000
 TOTAL ENERGY -2.7532577627199E+02  CONVERGENCE ON ENER        2.929E-10
 KIN. ENERGY   2.7427204676284E+02  VIR. COEFF.           1.03385102E+00
 N. OF SCF CYCLES                8  FERMI ENERGY              -0.177E+00
 WEIGHT OF F(I) IN F(I+1)      30
 SHRINK. FACT.(MONKH.)     8  8  8  SHRINKING FACTOR(GILAT NET)        8
 NUMBER OF K POINTS IN THE IBZ  29  CELL VOLUME (A.U.)        125.887585
 *******************************************************************************

 GCALCO - MAX INDICES DIRECT LATTICE VECTOR    14    14    14
 NO.OF VECTORS CREATED 6999 STARS  105 RMAX    59.53536 BOHR
 TTTTTTTTTTTTTTTTTTTTTTTTTTTTTT gordsh1     TELAPSE        0.03 TCPU        0.02

 MATRIX SIZE: P(G)   51290, F(G)    9208, P(G) IRR    2076, F(G) IRR    1063
 MAX G-VECTOR INDEX FOR 1- AND 2-ELECTRON INTEGRALS 453


 CAPPA:IS1  8;IS2  8;IS3  8; K PTS MONK NET  29; SYMMOPS:K SPACE  48;G SPACE  48


 CAPPA:IS1  8;IS2  8;IS3  8; K PTS MONK NET  29; SYMMOPS:K SPACE  48;G SPACE  48

 *******************************************************************************
 RESTART WITH NEW K POINTS NET
 *******************************************************************************
 POINTS IN THE IBZ                  29 POINTS(GILAT NET)                29
 SHRINK FACTORS(MONK.)         8  8  8 SHRINK FACTOR(GILAT)              8
 *******************************************************************************
 *** K POINTS COORDINATES (OBLIQUE COORDINATES IN UNITS OF IS =  8)
   1-R(  0  0  0)   2-C(  1  0  0)   3-C(  2  0  0)   4-C(  3  0  0)
   5-R(  4  0  0)   6-C(  1  1  0)   7-C(  2  1  0)   8-C(  3  1  0)
   9-C(  4  1  0)  10-C(  5  1  0)  11-C(  6  1  0)  12-C(  7  1  0)
  13-C(  2  2  0)  14-C(  3  2  0)  15-C(  4  2  0)  16-C(  5  2  0)
  17-C(  6  2  0)  18-C(  3  3  0)  19-C(  4  3  0)  20-C(  5  3  0)
  21-R(  4  4  0)  22-C(  3  2  1)  23-C(  4  2  1)  24-C(  5  2  1)
  25-C(  4  3  1)  26-C(  5  3  1)  27-C(  6  3  1)  28-C(  5  4  1)
  29-C(  6  4  2)
 TTTTTTTTTTTTTTTTTTTTTTTTTTTTTT NEWK        TELAPSE        0.04 TCPU        0.03


 *******************************************************************************
  ANALYSIS OF THE MAIN COMPONENTS OF THE CRYSTALLINE ORBITALS
  MODULUS OF MINIMUM COEFFICIENT  0.10000E-01

  BANDS ANALYZED:     8
 *******************************************************************************

    K POINT   1   (  0  0  0)
    BAND    7    E(A.U.)=      -0.869212
 AO    1  S MG    1   RE=     0.02548
 AO    2  S MG    1   RE=    -0.09615
 AO    6  S MG    1   RE=    -0.09041
 AO   10  S MG    1   RE=     0.08828
 AO   14  S O     2   RE=    -0.19977
 AO   15  S O     2   RE=     0.28106
 AO   19  S O     2   RE=     0.43379
 AO   23  S O     2   RE=     0.29616
    BAND    8    E(A.U.)=      -0.176552
 AO    3 PX MG    1   RE=     0.07844
 AO    7 PX MG    1   RE=     0.01077
 AO   16 PX O     2   RE=     0.54134
 AO   20 PX O     2   RE=     0.35471
 AO   24 PX O     2   RE=     0.45335
    BAND    9    E(A.U.)=      -0.176552
 AO    4 PY MG    1   RE=     0.07844
 AO    8 PY MG    1   RE=     0.01077
 AO   17 PY O     2   RE=     0.54134
 AO   21 PY O     2   RE=     0.35471
 AO   25 PY O     2   RE=     0.45335
    BAND   10    E(A.U.)=      -0.176552
 AO    5 PZ MG    1   RE=     0.07844
 AO    9 PZ MG    1   RE=     0.01077
 AO   18 PZ O     2   RE=     0.54134
 AO   22 PZ O     2   RE=     0.35471
 AO   26 PZ O     2   RE=     0.45335
    BAND   11    E(A.U.)=       0.095992
 AO    1  S MG    1   RE=    -0.05676
 AO    2  S MG    1   RE=     0.26588
 AO    6  S MG    1   RE=     0.20784
 AO   10  S MG    1   RE=    -0.26413
 AO   14  S O     2   RE=    -0.18637
 AO   15  S O     2   RE=     0.15819
 AO   19  S O     2   RE=     1.22877
 AO   23  S O     2   RE=    -1.04183
    BAND   12    E(A.U.)=       0.837424
 AO    3 PX MG    1   RE=    -0.43526
 AO    7 PX MG    1   RE=    -0.25657
 AO   11 PX MG    1   RE=     1.61874
 AO   16 PX O     2   RE=     0.20831
 AO   24 PX O     2   RE=     0.51795
    BAND   13    E(A.U.)=       0.837424
 AO    5 PZ MG    1   RE=    -0.43526
 AO    9 PZ MG    1   RE=    -0.25657
 AO   13 PZ MG    1   RE=     1.61874
 AO   18 PZ O     2   RE=     0.20831
 AO   26 PZ O     2   RE=     0.51795
    BAND   14    E(A.U.)=       0.837424
 AO    4 PY MG    1   RE=    -0.43526
 AO    8 PY MG    1   RE=    -0.25657
 AO   12 PY MG    1   RE=     1.61874
 AO   17 PY O     2   RE=     0.20831
 AO   25 PY O     2   RE=     0.51795

    K POINT   2   (  1  0  0)
    BAND    7    E(A.U.)=      -0.862546
 AO    1  S MG    1   RE=     0.02395  IM=    -0.00000
 AO    2  S MG    1   RE=    -0.09061  IM=     0.00000
 AO    3 PX MG    1   RE=     0.00000  IM=     0.02285
 AO    4 PY MG    1   RE=    -0.00000  IM=    -0.02285
 AO    5 PZ MG    1   RE=    -0.00000  IM=    -0.02285
 AO    6  S MG    1   RE=    -0.08502  IM=    -0.00000
 AO   10  S MG    1   RE=     0.08310  IM=     0.00000
 AO   14  S O     2   RE=    -0.18624  IM=    -0.07714
 AO   15  S O     2   RE=     0.26121  IM=     0.10820
 AO   19  S O     2   RE=     0.40874  IM=     0.16930
 AO   23  S O     2   RE=     0.27018  IM=     0.11191
    BAND    8    E(A.U.)=      -0.212823
 AO    1  S MG    1   RE=     0.00765  IM=     0.01847
 AO    2  S MG    1   RE=    -0.03331  IM=    -0.08042
 AO    3 PX MG    1   RE=     0.03499  IM=    -0.01449
 AO    4 PY MG    1   RE=    -0.03499  IM=     0.01449
 AO    5 PZ MG    1   RE=    -0.03499  IM=     0.01449
 AO    6  S MG    1   RE=    -0.02715  IM=    -0.06554
 AO   10  S MG    1   RE=     0.02204  IM=     0.05322
 AO   14  S O     2   RE=     0.00000  IM=     0.04714
 AO   15  S O     2   RE=     0.00000  IM=    -0.05732
 AO   16 PX O     2   RE=     0.28742  IM=     0.00000
 AO   17 PY O     2   RE=    -0.28742  IM=    -0.00000
 AO   18 PZ O     2   RE=    -0.28742  IM=    -0.00000
 AO   19  S O     2   RE=    -0.00000  IM=    -0.19670
 AO   20 PX O     2   RE=     0.17524  IM=     0.00000
 AO   21 PY O     2   RE=    -0.17524  IM=    -0.00000
 AO   22 PZ O     2   RE=    -0.17524  IM=    -0.00000
 AO   23  S O     2   RE=     0.00000  IM=     0.05494
 AO   24 PX O     2   RE=     0.27274  IM=    -0.00000
 AO   25 PY O     2   RE=    -0.27274  IM=     0.00000
 AO   26 PZ O     2   RE=    -0.27274  IM=     0.00000
    BAND    9    E(A.U.)=      -0.180242
 AO    3 PX MG    1   RE=     0.04715  IM=    -0.01953
 AO    4 PY MG    1   RE=     0.04715  IM=    -0.01953
 AO   16 PX O     2   RE=     0.38151  IM=     0.00000
 AO   17 PY O     2   RE=     0.38151  IM=     0.00000
 AO   20 PX O     2   RE=     0.24155  IM=    -0.00000
 AO   21 PY O     2   RE=     0.24155  IM=    -0.00000
 AO   24 PX O     2   RE=     0.33754  IM=     0.00000
 AO   25 PY O     2   RE=     0.33754  IM=     0.00000
    BAND   10    E(A.U.)=      -0.180242
 AO    3 PX MG    1   RE=     0.02722  IM=    -0.01128
 AO    4 PY MG    1   RE=    -0.02722  IM=     0.01128
 AO    5 PZ MG    1   RE=     0.05444  IM=    -0.02255
 AO   16 PX O     2   RE=     0.22027  IM=     0.00000
 AO   17 PY O     2   RE=    -0.22027  IM=    -0.00000
 AO   18 PZ O     2   RE=     0.44054  IM=     0.00000
 AO   20 PX O     2   RE=     0.13946  IM=    -0.00000
 AO   21 PY O     2   RE=    -0.13946  IM=     0.00000
 AO   22 PZ O     2   RE=     0.27892  IM=    -0.00000
 AO   24 PX O     2   RE=     0.19488  IM=     0.00000
 AO   25 PY O     2   RE=    -0.19488  IM=    -0.00000
 AO   26 PZ O     2   RE=     0.38975  IM=     0.00000
    BAND   11    E(A.U.)=       0.130867
 AO    1  S MG    1   RE=    -0.04826  IM=     0.01999
 AO    2  S MG    1   RE=     0.22757  IM=    -0.09426
 AO    3 PX MG    1   RE=    -0.01626  IM=    -0.03925
 AO    4 PY MG    1   RE=     0.01626  IM=     0.03925
 AO    5 PZ MG    1   RE=     0.01626  IM=     0.03925
 AO    6  S MG    1   RE=     0.17656  IM=    -0.07313
 AO    7 PX MG    1   RE=    -0.00494  IM=    -0.01192
 AO    8 PY MG    1   RE=     0.00494  IM=     0.01192
 AO    9 PZ MG    1   RE=     0.00494  IM=     0.01192
 AO   10  S MG    1   RE=    -0.21433  IM=     0.08878
 AO   11 PX MG    1   RE=     0.02333  IM=     0.05632
 AO   12 PY MG    1   RE=    -0.02333  IM=    -0.05632
 AO   13 PZ MG    1   RE=    -0.02333  IM=    -0.05632
 AO   14  S O     2   RE=    -0.17132  IM=     0.00000
 AO   15  S O     2   RE=     0.15282  IM=     0.00000
 AO   16 PX O     2   RE=     0.00000  IM=    -0.11942
 AO   17 PY O     2   RE=    -0.00000  IM=     0.11942
 AO   18 PZ O     2   RE=    -0.00000  IM=     0.11942
 AO   19  S O     2   RE=     1.12992  IM=    -0.00000
 AO   20 PX O     2   RE=     0.00000  IM=    -0.14668
 AO   21 PY O     2   RE=    -0.00000  IM=     0.14668
 AO   22 PZ O     2   RE=    -0.00000  IM=     0.14668
 AO   23  S O     2   RE=    -0.95485  IM=     0.00000
 AO   24 PX O     2   RE=    -0.00000  IM=     0.10956
 AO   25 PY O     2   RE=     0.00000  IM=    -0.10956
 AO   26 PZ O     2   RE=     0.00000  IM=    -0.10956
    BAND   12    E(A.U.)=       0.771994
 AO    1  S MG    1   RE=     0.00000  IM=    -0.02788
 AO    2  S MG    1   RE=     0.00000  IM=     0.13021
 AO    3 PX MG    1   RE=    -0.22196  IM=    -0.00000
 AO    4 PY MG    1   RE=     0.22196  IM=     0.00000
 AO    5 PZ MG    1   RE=     0.22196  IM=     0.00000
 AO    6  S MG    1   RE=    -0.00000  IM=     0.24507
 AO    7 PX MG    1   RE=    -0.15222  IM=     0.00000
 AO    8 PY MG    1   RE=     0.15222  IM=    -0.00000
 AO    9 PZ MG    1   RE=     0.15222  IM=    -0.00000
 AO   10  S MG    1   RE=     0.00000  IM=    -0.50246
 AO   11 PX MG    1   RE=     0.76501  IM=     0.00000
 AO   12 PY MG    1   RE=    -0.76501  IM=    -0.00000
 AO   13 PZ MG    1   RE=    -0.76501  IM=    -0.00000
 AO   14  S O     2   RE=    -0.00974  IM=     0.02351
 AO   16 PX O     2   RE=     0.13519  IM=     0.05600
 AO   17 PY O     2   RE=    -0.13519  IM=    -0.05600
 AO   18 PZ O     2   RE=    -0.13519  IM=    -0.05600
 AO   19  S O     2   RE=     0.07640  IM=    -0.18445
 AO   20 PX O     2   RE=     0.18971  IM=     0.07858
 AO   21 PY O     2   RE=    -0.18971  IM=    -0.07858
 AO   22 PZ O     2   RE=    -0.18971  IM=    -0.07858
 AO   23  S O     2   RE=    -0.04779  IM=     0.11538
 AO   24 PX O     2   RE=    -0.15297  IM=    -0.06336
 AO   25 PY O     2   RE=     0.15297  IM=     0.06336
 AO   26 PZ O     2   RE=     0.15297  IM=     0.06336
    BAND   13    E(A.U.)=       0.791012
 AO    3 PX MG    1   RE=    -0.29364  IM=    -0.00000
 AO    4 PY MG    1   RE=    -0.29364  IM=    -0.00000
 AO    7 PX MG    1   RE=    -0.20596  IM=     0.00000
 AO    8 PY MG    1   RE=    -0.20596  IM=     0.00000
 AO   11 PX MG    1   RE=     1.16867  IM=     0.00000
 AO   12 PY MG    1   RE=     1.16867  IM=     0.00000
 AO   16 PX O     2   RE=     0.10469  IM=     0.04336
 AO   17 PY O     2   RE=     0.10469  IM=     0.04336
 AO   20 PX O     2   RE=    -0.05704  IM=    -0.02363
 AO   21 PY O     2   RE=    -0.05704  IM=    -0.02363
 AO   24 PX O     2   RE=     0.47286  IM=     0.19587
 AO   25 PY O     2   RE=     0.47286  IM=     0.19587
    BAND   14    E(A.U.)=       0.791012
 AO    3 PX MG    1   RE=    -0.16953  IM=    -0.00000
 AO    4 PY MG    1   RE=     0.16953  IM=     0.00000
 AO    5 PZ MG    1   RE=    -0.33907  IM=    -0.00000
 AO    7 PX MG    1   RE=    -0.11891  IM=     0.00000
 AO    8 PY MG    1   RE=     0.11891  IM=    -0.00000
 AO    9 PZ MG    1   RE=    -0.23783  IM=     0.00000
 AO   11 PX MG    1   RE=     0.67473  IM=     0.00000
 AO   12 PY MG    1   RE=    -0.67473  IM=    -0.00000
 AO   13 PZ MG    1   RE=     1.34947  IM=     0.00000
 AO   16 PX O     2   RE=     0.06044  IM=     0.02504
 AO   17 PY O     2   RE=    -0.06044  IM=    -0.02504
 AO   18 PZ O     2   RE=     0.12088  IM=     0.05007
 AO   20 PX O     2   RE=    -0.03293  IM=    -0.01364
 AO   21 PY O     2   RE=     0.03293  IM=     0.01364
 AO   22 PZ O     2   RE=    -0.06587  IM=    -0.02728
 AO   24 PX O     2   RE=     0.27301  IM=     0.11308
 AO   25 PY O     2   RE=    -0.27301  IM=    -0.11308
 AO   26 PZ O     2   RE=     0.54602  IM=     0.22617

    K POINT   3   (  2  0  0)
    BAND    7    E(A.U.)=      -0.845370
 AO    1  S MG    1   RE=     0.01922  IM=     0.00000
 AO    2  S MG    1   RE=    -0.07313  IM=     0.00000
 AO    3 PX MG    1   RE=     0.00000  IM=     0.04281
 AO    4 PY MG    1   RE=    -0.00000  IM=    -0.04281
 AO    5 PZ MG    1   RE=    -0.00000  IM=    -0.04281
 AO    6  S MG    1   RE=    -0.06850  IM=    -0.00000
 AO    7 PX MG    1   RE=    -0.00000  IM=     0.01113
 AO    8 PY MG    1   RE=     0.00000  IM=    -0.01113
 AO    9 PZ MG    1   RE=     0.00000  IM=    -0.01113
 AO   10  S MG    1   RE=     0.06731  IM=     0.00000
 AO   11 PX MG    1   RE=     0.00000  IM=    -0.01625
 AO   12 PY MG    1   RE=    -0.00000  IM=     0.01625
 AO   13 PZ MG    1   RE=    -0.00000  IM=     0.01625
 AO   14  S O     2   RE=    -0.14615  IM=    -0.14615
 AO   15  S O     2   RE=     0.20343  IM=     0.20343
 AO   16 PX O     2   RE=     0.00711  IM=    -0.00711
 AO   17 PY O     2   RE=    -0.00711  IM=     0.00711
 AO   18 PZ O     2   RE=    -0.00711  IM=     0.00711
 AO   19  S O     2   RE=     0.32938  IM=     0.32938
 AO   23  S O     2   RE=     0.20037  IM=     0.20037
 AO   24 PX O     2   RE=     0.00839  IM=    -0.00839
 AO   25 PY O     2   RE=    -0.00839  IM=     0.00839
 AO   26 PZ O     2   RE=    -0.00839  IM=     0.00839
    BAND    8    E(A.U.)=      -0.281185
 AO    1  S MG    1   RE=     0.00000  IM=    -0.02959
 AO    2  S MG    1   RE=    -0.00000  IM=     0.13027
 AO    3 PX MG    1   RE=    -0.02681  IM=    -0.00000
 AO    4 PY MG    1   RE=     0.02681  IM=     0.00000
 AO    5 PZ MG    1   RE=     0.02681  IM=     0.00000
 AO    6  S MG    1   RE=    -0.00000  IM=     0.09302
 AO   10  S MG    1   RE=     0.00000  IM=    -0.05868
 AO   14  S O     2   RE=     0.03756  IM=    -0.03756
 AO   15  S O     2   RE=    -0.04958  IM=     0.04958
 AO   16 PX O     2   RE=    -0.17907  IM=    -0.17907
 AO   17 PY O     2   RE=     0.17907  IM=     0.17907
 AO   18 PZ O     2   RE=     0.17907  IM=     0.17907
 AO   19  S O     2   RE=    -0.13517  IM=     0.13517
 AO   20 PX O     2   RE=    -0.10393  IM=    -0.10393
 AO   21 PY O     2   RE=     0.10393  IM=     0.10393
 AO   22 PZ O     2   RE=     0.10393  IM=     0.10393
 AO   24 PX O     2   RE=    -0.18341  IM=    -0.18341
 AO   25 PY O     2   RE=     0.18341  IM=     0.18341
 AO   26 PZ O     2   RE=     0.18341  IM=     0.18341
    BAND    9    E(A.U.)=      -0.189126
 AO    3 PX MG    1   RE=     0.02734  IM=    -0.02734
 AO    4 PY MG    1   RE=     0.02734  IM=    -0.02734
 AO   16 PX O     2   RE=     0.37740  IM=     0.00000
 AO   17 PY O     2   RE=     0.37740  IM=     0.00000
 AO   20 PX O     2   RE=     0.22871  IM=    -0.00000
 AO   21 PY O     2   RE=     0.22871  IM=    -0.00000
 AO   24 PX O     2   RE=     0.35579  IM=     0.00000
 AO   25 PY O     2   RE=     0.35579  IM=     0.00000
    BAND   10    E(A.U.)=      -0.189126
 AO    3 PX MG    1   RE=     0.01579  IM=    -0.01579
 AO    4 PY MG    1   RE=    -0.01579  IM=     0.01579
 AO    5 PZ MG    1   RE=     0.03157  IM=    -0.03157
 AO   16 PX O     2   RE=     0.21789  IM=     0.00000
 AO   17 PY O     2   RE=    -0.21789  IM=    -0.00000
 AO   18 PZ O     2   RE=     0.43578  IM=     0.00000
 AO   20 PX O     2   RE=     0.13204  IM=    -0.00000
 AO   21 PY O     2   RE=    -0.13204  IM=     0.00000
 AO   22 PZ O     2   RE=     0.26409  IM=    -0.00000
 AO   24 PX O     2   RE=     0.20542  IM=     0.00000
 AO   25 PY O     2   RE=    -0.20542  IM=    -0.00000
 AO   26 PZ O     2   RE=     0.41083  IM=     0.00000
    BAND   11    E(A.U.)=       0.200088
 AO    1  S MG    1   RE=    -0.03185  IM=     0.03185
 AO    2  S MG    1   RE=     0.14460  IM=    -0.14460
 AO    3 PX MG    1   RE=    -0.05480  IM=    -0.05480
 AO    4 PY MG    1   RE=     0.05480  IM=     0.05480
 AO    5 PZ MG    1   RE=     0.05480  IM=     0.05480
 AO    6  S MG    1   RE=     0.14631  IM=    -0.14631
 AO    7 PX MG    1   RE=    -0.03499  IM=    -0.03499
 AO    8 PY MG    1   RE=     0.03499  IM=     0.03499
 AO    9 PZ MG    1   RE=     0.03499  IM=     0.03499
 AO   10  S MG    1   RE=    -0.18353  IM=     0.18353
 AO   11 PX MG    1   RE=     0.11774  IM=     0.11774
 AO   12 PY MG    1   RE=    -0.11774  IM=    -0.11774
 AO   13 PZ MG    1   RE=    -0.11774  IM=    -0.11774
 AO   14  S O     2   RE=    -0.15153  IM=     0.00000
 AO   15  S O     2   RE=     0.14188  IM=     0.00000
 AO   16 PX O     2   RE=     0.00000  IM=    -0.17218
 AO   17 PY O     2   RE=    -0.00000  IM=     0.17218
 AO   18 PZ O     2   RE=    -0.00000  IM=     0.17218
 AO   19  S O     2   RE=     0.98313  IM=    -0.00000
 AO   20 PX O     2   RE=     0.00000  IM=    -0.18512
 AO   21 PY O     2   RE=    -0.00000  IM=     0.18512
 AO   22 PZ O     2   RE=    -0.00000  IM=     0.18512
 AO   23  S O     2   RE=    -0.78184  IM=     0.00000
 AO   24 PX O     2   RE=    -0.00000  IM=     0.13923
 AO   25 PY O     2   RE=     0.00000  IM=    -0.13923
 AO   26 PZ O     2   RE=     0.00000  IM=    -0.13923
    BAND   12    E(A.U.)=       0.595695
 AO    1  S MG    1   RE=    -0.02022  IM=    -0.02022
 AO    2  S MG    1   RE=     0.12669  IM=     0.12669
 AO    3 PX MG    1   RE=    -0.10766  IM=     0.10766
 AO    4 PY MG    1   RE=     0.10766  IM=    -0.10766
 AO    5 PZ MG    1   RE=     0.10766  IM=    -0.10766
 AO    6  S MG    1   RE=     0.00791  IM=     0.00791
 AO    7 PX MG    1   RE=    -0.10881  IM=     0.10881
 AO    8 PY MG    1   RE=     0.10881  IM=    -0.10881
 AO    9 PZ MG    1   RE=     0.10881  IM=    -0.10881
 AO   10  S MG    1   RE=     0.04456  IM=     0.04456
 AO   11 PX MG    1   RE=     0.36597  IM=    -0.36597
 AO   12 PY MG    1   RE=    -0.36597  IM=     0.36597
 AO   13 PZ MG    1   RE=    -0.36597  IM=     0.36597
 AO   14  S O     2   RE=    -0.00000  IM=     0.05607
 AO   15  S O     2   RE=     0.00000  IM=    -0.01033
 AO   16 PX O     2   RE=     0.19114  IM=    -0.00000
 AO   17 PY O     2   RE=    -0.19114  IM=     0.00000
 AO   18 PZ O     2   RE=    -0.19114  IM=     0.00000
 AO   19  S O     2   RE=     0.00000  IM=    -0.42363
 AO   20 PX O     2   RE=     0.38879  IM=    -0.00000
 AO   21 PY O     2   RE=    -0.38879  IM=     0.00000
 AO   22 PZ O     2   RE=    -0.38879  IM=     0.00000
 AO   23  S O     2   RE=    -0.00000  IM=     0.28742
 AO   24 PX O     2   RE=    -0.54786  IM=     0.00000
 AO   25 PY O     2   RE=     0.54786  IM=    -0.00000
 AO   26 PZ O     2   RE=     0.54786  IM=    -0.00000
    BAND   13    E(A.U.)=       0.696846
 AO    3 PX MG    1   RE=    -0.26955  IM=    -0.00000
 AO    4 PY MG    1   RE=    -0.26955  IM=    -0.00000
 AO    7 PX MG    1   RE=    -0.23303  IM=    -0.00000
 AO    8 PY MG    1   RE=    -0.23303  IM=    -0.00000
 AO   11 PX MG    1   RE=     1.11863  IM=     0.00000
 AO   12 PY MG    1   RE=     1.11863  IM=     0.00000
 AO   16 PX O     2   RE=     0.03632  IM=     0.03632
 AO   17 PY O     2   RE=     0.03632  IM=     0.03632
 AO   20 PX O     2   RE=    -0.07440  IM=    -0.07440
 AO   21 PY O     2   RE=    -0.07440  IM=    -0.07440
 AO   24 PX O     2   RE=     0.36553  IM=     0.36553
 AO   25 PY O     2   RE=     0.36553  IM=     0.36553
    BAND   14    E(A.U.)=       0.696846
 AO    3 PX MG    1   RE=    -0.15562  IM=    -0.00000
 AO    4 PY MG    1   RE=     0.15562  IM=     0.00000
 AO    5 PZ MG    1   RE=    -0.31125  IM=    -0.00000
 AO    7 PX MG    1   RE=    -0.13454  IM=    -0.00000
 AO    8 PY MG    1   RE=     0.13454  IM=     0.00000
 AO    9 PZ MG    1   RE=    -0.26909  IM=    -0.00000
 AO   11 PX MG    1   RE=     0.64584  IM=     0.00000
 AO   12 PY MG    1   RE=    -0.64584  IM=    -0.00000
 AO   13 PZ MG    1   RE=     1.29169  IM=     0.00000
 AO   16 PX O     2   RE=     0.02097  IM=     0.02097
 AO   17 PY O     2   RE=    -0.02097  IM=    -0.02097
 AO   18 PZ O     2   RE=     0.04194  IM=     0.04194
 AO   20 PX O     2   RE=    -0.04295  IM=    -0.04295
 AO   21 PY O     2   RE=     0.04295  IM=     0.04295
 AO   22 PZ O     2   RE=    -0.08591  IM=    -0.08591
 AO   24 PX O     2   RE=     0.21104  IM=     0.21104
 AO   25 PY O     2   RE=    -0.21104  IM=    -0.21104
 AO   26 PZ O     2   RE=     0.42208  IM=     0.42208

    K POINT   4   (  3  0  0)
    BAND    7    E(A.U.)=      -0.826231
 AO    1  S MG    1   RE=     0.00000  IM=     0.01102
 AO    2  S MG    1   RE=    -0.00000  IM=    -0.04214
 AO    3 PX MG    1   RE=    -0.05702  IM=     0.00000
 AO    4 PY MG    1   RE=     0.05702  IM=    -0.00000
 AO    5 PZ MG    1   RE=     0.05702  IM=    -0.00000
 AO    6  S MG    1   RE=    -0.00000  IM=    -0.03960
 AO    7 PX MG    1   RE=    -0.01524  IM=    -0.00000
 AO    8 PY MG    1   RE=     0.01524  IM=     0.00000
 AO    9 PZ MG    1   RE=     0.01524  IM=     0.00000
 AO   10  S MG    1   RE=     0.00000  IM=     0.03918
 AO   11 PX MG    1   RE=     0.02399  IM=     0.00000
 AO   12 PY MG    1   RE=    -0.02399  IM=    -0.00000
 AO   13 PZ MG    1   RE=    -0.02399  IM=    -0.00000
 AO   14  S O     2   RE=     0.19706  IM=    -0.08163
 AO   15  S O     2   RE=    -0.27190  IM=     0.11262
 AO   19  S O     2   RE=    -0.45730  IM=     0.18942
 AO   23  S O     2   RE=    -0.25255  IM=     0.10461
    BAND    8    E(A.U.)=      -0.338155
 AO    1  S MG    1   RE=     0.03175  IM=     0.01315
 AO    2  S MG    1   RE=    -0.14240  IM=    -0.05898
 AO    3 PX MG    1   RE=     0.00567  IM=    -0.01369
 AO    4 PY MG    1   RE=    -0.00567  IM=     0.01369
 AO    5 PZ MG    1   RE=    -0.00567  IM=     0.01369
 AO    6  S MG    1   RE=    -0.08510  IM=    -0.03525
 AO   10  S MG    1   RE=     0.03724  IM=     0.01542
 AO   14  S O     2   RE=     0.00000  IM=     0.03375
 AO   15  S O     2   RE=     0.00000  IM=    -0.04640
 AO   16 PX O     2   RE=     0.23258  IM=     0.00000
 AO   17 PY O     2   RE=    -0.23258  IM=    -0.00000
 AO   18 PZ O     2   RE=    -0.23258  IM=    -0.00000
 AO   19  S O     2   RE=    -0.00000  IM=    -0.10937
 AO   20 PX O     2   RE=     0.13279  IM=     0.00000
 AO   21 PY O     2   RE=    -0.13279  IM=    -0.00000
 AO   22 PZ O     2   RE=    -0.13279  IM=    -0.00000
 AO   23  S O     2   RE=     0.00000  IM=    -0.01550
 AO   24 PX O     2   RE=     0.24101  IM=     0.00000
 AO   25 PY O     2   RE=    -0.24101  IM=    -0.00000
 AO   26 PZ O     2   RE=    -0.24101  IM=    -0.00000
    BAND    9    E(A.U.)=      -0.197868
 AO    3 PX MG    1   RE=     0.00793  IM=    -0.01915
 AO    4 PY MG    1   RE=     0.00793  IM=    -0.01915
 AO   16 PX O     2   RE=     0.37294  IM=     0.00000
 AO   17 PY O     2   RE=     0.37294  IM=     0.00000
 AO   20 PX O     2   RE=     0.22150  IM=    -0.00000
 AO   21 PY O     2   RE=     0.22150  IM=    -0.00000
 AO   24 PX O     2   RE=     0.36116  IM=     0.00000
 AO   25 PY O     2   RE=     0.36116  IM=     0.00000
    BAND   10    E(A.U.)=      -0.197868
 AO    3 PX MG    1   RE=     0.00458  IM=    -0.01106
 AO    4 PY MG    1   RE=    -0.00458  IM=     0.01106
 AO    5 PZ MG    1   RE=     0.00916  IM=    -0.02211
 AO   16 PX O     2   RE=     0.21532  IM=     0.00000
 AO   17 PY O     2   RE=    -0.21532  IM=    -0.00000
 AO   18 PZ O     2   RE=     0.43064  IM=     0.00000
 AO   20 PX O     2   RE=     0.12789  IM=    -0.00000
 AO   21 PY O     2   RE=    -0.12789  IM=     0.00000
 AO   22 PZ O     2   RE=     0.25577  IM=    -0.00000
 AO   24 PX O     2   RE=     0.20852  IM=     0.00000
 AO   25 PY O     2   RE=    -0.20852  IM=    -0.00000
 AO   26 PZ O     2   RE=     0.41704  IM=     0.00000
    BAND   11    E(A.U.)=       0.260821
 AO    1  S MG    1   RE=    -0.01243  IM=     0.03000
 AO    2  S MG    1   RE=     0.05108  IM=    -0.12331
 AO    3 PX MG    1   RE=    -0.10605  IM=    -0.04393
 AO    4 PY MG    1   RE=     0.10605  IM=     0.04393
 AO    5 PZ MG    1   RE=     0.10605  IM=     0.04393
 AO    6  S MG    1   RE=     0.08056  IM=    -0.19450
 AO    7 PX MG    1   RE=    -0.12124  IM=    -0.05022
 AO    8 PY MG    1   RE=     0.12124  IM=     0.05022
 AO    9 PZ MG    1   RE=     0.12124  IM=     0.05022
 AO   10  S MG    1   RE=    -0.10845  IM=     0.26182
 AO   11 PX MG    1   RE=     0.37481  IM=     0.15525
 AO   12 PY MG    1   RE=    -0.37481  IM=    -0.15525
 AO   13 PZ MG    1   RE=    -0.37481  IM=    -0.15525
 AO   14  S O     2   RE=    -0.13750  IM=     0.00000
 AO   15  S O     2   RE=     0.14290  IM=     0.00000
 AO   16 PX O     2   RE=     0.00000  IM=    -0.15215
 AO   17 PY O     2   RE=    -0.00000  IM=     0.15215
 AO   18 PZ O     2   RE=    -0.00000  IM=     0.15215
 AO   19  S O     2   RE=     0.77810  IM=    -0.00000
 AO   20 PX O     2   RE=     0.00000  IM=    -0.15513
 AO   21 PY O     2   RE=    -0.00000  IM=     0.15513
 AO   22 PZ O     2   RE=    -0.00000  IM=     0.15513
 AO   23  S O     2   RE=    -0.41303  IM=     0.00000
 AO   24 PX O     2   RE=    -0.00000  IM=     0.13201
 AO   25 PY O     2   RE=     0.00000  IM=    -0.13201
 AO   26 PZ O     2   RE=     0.00000  IM=    -0.13201
    BAND   12    E(A.U.)=       0.458044
 AO    1  S MG    1   RE=     0.03718  IM=    -0.00000
 AO    2  S MG    1   RE=    -0.22073  IM=     0.00000
 AO    3 PX MG    1   RE=    -0.00000  IM=    -0.09363
 AO    4 PY MG    1   RE=     0.00000  IM=     0.09363
 AO    5 PZ MG    1   RE=     0.00000  IM=     0.09363
 AO    6  S MG    1   RE=    -0.01501  IM=    -0.00000
 AO    7 PX MG    1   RE=    -0.00000  IM=    -0.13731
 AO    8 PY MG    1   RE=     0.00000  IM=     0.13731
 AO    9 PZ MG    1   RE=     0.00000  IM=     0.13731
 AO   10  S MG    1   RE=    -0.11583  IM=     0.00000
 AO   11 PX MG    1   RE=     0.00000  IM=     0.41663
 AO   12 PY MG    1   RE=    -0.00000  IM=    -0.41663
 AO   13 PZ MG    1   RE=    -0.00000  IM=    -0.41663
 AO   14  S O     2   RE=    -0.01719  IM=    -0.04150
 AO   15  S O     2   RE=     0.01114  IM=     0.02689
 AO   16 PX O     2   RE=    -0.23240  IM=     0.09626
 AO   17 PY O     2   RE=     0.23240  IM=    -0.09626
 AO   18 PZ O     2   RE=     0.23240  IM=    -0.09626
 AO   19  S O     2   RE=     0.08384  IM=     0.20241
 AO   20 PX O     2   RE=    -0.35227  IM=     0.14592
 AO   21 PY O     2   RE=     0.35227  IM=    -0.14592
 AO   22 PZ O     2   RE=     0.35227  IM=    -0.14592
 AO   23  S O     2   RE=     0.00896  IM=     0.02163
 AO   24 PX O     2   RE=     0.42740  IM=    -0.17704
 AO   25 PY O     2   RE=    -0.42740  IM=     0.17704
 AO   26 PZ O     2   RE=    -0.42740  IM=     0.17704
    BAND   13    E(A.U.)=       0.627970
 AO    3 PX MG    1   RE=    -0.25992  IM=    -0.00000
 AO    4 PY MG    1   RE=    -0.25992  IM=    -0.00000
 AO    7 PX MG    1   RE=    -0.24241  IM=     0.00000
 AO    8 PY MG    1   RE=    -0.24241  IM=     0.00000
 AO   11 PX MG    1   RE=     1.04129  IM=     0.00000
 AO   12 PY MG    1   RE=     1.04129  IM=     0.00000
 AO   16 PX O     2   RE=     0.00664  IM=     0.01603
 AO   17 PY O     2   RE=     0.00664  IM=     0.01603
 AO   20 PX O     2   RE=    -0.01942  IM=    -0.04689
 AO   21 PY O     2   RE=    -0.01942  IM=    -0.04689
 AO   24 PX O     2   RE=     0.09813  IM=     0.23690
 AO   25 PY O     2   RE=     0.09813  IM=     0.23690
    BAND   14    E(A.U.)=       0.627970
 AO    3 PX MG    1   RE=    -0.15006  IM=    -0.00000
 AO    4 PY MG    1   RE=     0.15006  IM=     0.00000
 AO    5 PZ MG    1   RE=    -0.30013  IM=    -0.00000
 AO    7 PX MG    1   RE=    -0.13995  IM=     0.00000
 AO    8 PY MG    1   RE=     0.13995  IM=    -0.00000
 AO    9 PZ MG    1   RE=    -0.27991  IM=     0.00000
 AO   11 PX MG    1   RE=     0.60119  IM=     0.00000
 AO   12 PY MG    1   RE=    -0.60119  IM=    -0.00000
 AO   13 PZ MG    1   RE=     1.20238  IM=     0.00000
 AO   16 PX O     2   RE=     0.00383  IM=     0.00926
 AO   17 PY O     2   RE=    -0.00383  IM=    -0.00926
 AO   18 PZ O     2   RE=     0.00767  IM=     0.01851
 AO   20 PX O     2   RE=    -0.01121  IM=    -0.02707
 AO   21 PY O     2   RE=     0.01121  IM=     0.02707
 AO   22 PZ O     2   RE=    -0.02243  IM=    -0.05415
 AO   24 PX O     2   RE=     0.05665  IM=     0.13677
 AO   25 PY O     2   RE=    -0.05665  IM=    -0.13677
 AO   26 PZ O     2   RE=     0.11331  IM=     0.27355

    K POINT   5   (  4  0  0)
    BAND    7    E(A.U.)=      -0.817552
 AO    3 PX MG    1   RE=    -0.06235
 AO    4 PY MG    1   RE=     0.06235
 AO    5 PZ MG    1   RE=     0.06235
 AO    7 PX MG    1   RE=    -0.01688
 AO    8 PY MG    1   RE=     0.01688
 AO    9 PZ MG    1   RE=     0.01688
 AO   11 PX MG    1   RE=     0.02746
 AO   12 PY MG    1   RE=    -0.02746
 AO   13 PZ MG    1   RE=    -0.02746
 AO   14  S O     2   RE=     0.21669
 AO   15  S O     2   RE=    -0.29772
 AO   19  S O     2   RE=    -0.50955
 AO   23  S O     2   RE=    -0.26874
    BAND    8    E(A.U.)=      -0.360304
 AO    1  S MG    1   RE=     0.03607
 AO    2  S MG    1   RE=    -0.16310
 AO    6  S MG    1   RE=    -0.08944
 AO   10  S MG    1   RE=     0.03061
 AO   16 PX O     2   RE=     0.22588
 AO   17 PY O     2   RE=    -0.22588
 AO   18 PZ O     2   RE=    -0.22588
 AO   20 PX O     2   RE=     0.12837
 AO   21 PY O     2   RE=    -0.12837
 AO   22 PZ O     2   RE=    -0.12837
 AO   24 PX O     2   RE=     0.23379
 AO   25 PY O     2   RE=    -0.23379
 AO   26 PZ O     2   RE=    -0.23379
    BAND    9    E(A.U.)=      -0.201443
 AO   16 PX O     2   RE=     0.37112
 AO   17 PY O     2   RE=     0.37112
 AO   20 PX O     2   RE=     0.21927
 AO   21 PY O     2   RE=     0.21927
 AO   24 PX O     2   RE=     0.36179
 AO   25 PY O     2   RE=     0.36179
    BAND   10    E(A.U.)=      -0.201443
 AO   16 PX O     2   RE=     0.21427
 AO   17 PY O     2   RE=    -0.21427
 AO   18 PZ O     2   RE=     0.42853
 AO   20 PX O     2   RE=     0.12660
 AO   21 PY O     2   RE=    -0.12660
 AO   22 PZ O     2   RE=     0.25320
 AO   24 PX O     2   RE=     0.20888
 AO   25 PY O     2   RE=    -0.20888
 AO   26 PZ O     2   RE=     0.41776
    BAND   11    E(A.U.)=       0.285838
 AO    3 PX MG    1   RE=    -0.14244
 AO    4 PY MG    1   RE=     0.14244
 AO    5 PZ MG    1   RE=     0.14244
 AO    7 PX MG    1   RE=    -0.20623
 AO    8 PY MG    1   RE=     0.20623
 AO    9 PZ MG    1   RE=     0.20623
 AO   11 PX MG    1   RE=     0.62898
 AO   12 PY MG    1   RE=    -0.62898
 AO   13 PZ MG    1   RE=    -0.62898
 AO   14  S O     2   RE=    -0.13442
 AO   15  S O     2   RE=     0.15459
 AO   19  S O     2   RE=     0.63396
 AO   23  S O     2   RE=    -0.09084
    BAND   12    E(A.U.)=       0.408441
 AO    1  S MG    1   RE=     0.04806
 AO    2  S MG    1   RE=    -0.24990
 AO    6  S MG    1   RE=    -0.14046
 AO   10  S MG    1   RE=     0.07212
 AO   16 PX O     2   RE=    -0.30712
 AO   17 PY O     2   RE=     0.30712
 AO   18 PZ O     2   RE=     0.30712
 AO   20 PX O     2   RE=    -0.40094
 AO   21 PY O     2   RE=     0.40094
 AO   22 PZ O     2   RE=     0.40094
 AO   24 PX O     2   RE=     0.45015
 AO   25 PY O     2   RE=    -0.45015
 AO   26 PZ O     2   RE=    -0.45015
    BAND   13    E(A.U.)=       0.604231
 AO    3 PX MG    1   RE=    -0.25789
 AO    4 PY MG    1   RE=    -0.25789
 AO    7 PX MG    1   RE=    -0.24427
 AO    8 PY MG    1   RE=    -0.24427
 AO   11 PX MG    1   RE=     1.01335
 AO   12 PY MG    1   RE=     1.01335
    BAND   14    E(A.U.)=       0.604231
 AO    3 PX MG    1   RE=    -0.14890
 AO    4 PY MG    1   RE=     0.14890
 AO    5 PZ MG    1   RE=    -0.29779
 AO    7 PX MG    1   RE=    -0.14103
 AO    8 PY MG    1   RE=     0.14103
 AO    9 PZ MG    1   RE=    -0.28206
 AO   11 PX MG    1   RE=     0.58506
 AO   12 PY MG    1   RE=    -0.58506
 AO   13 PZ MG    1   RE=     1.17012

    K POINT   6   (  1  1  0)
    BAND    7    E(A.U.)=      -0.860424
 AO    1  S MG    1   RE=     0.02349  IM=    -0.00000
 AO    2  S MG    1   RE=    -0.08899  IM=    -0.00000
 AO    5 PZ MG    1   RE=     0.00000  IM=    -0.04324
 AO    6  S MG    1   RE=    -0.08330  IM=     0.00000
 AO    9 PZ MG    1   RE=    -0.00000  IM=    -0.01012
 AO   10  S MG    1   RE=     0.08195  IM=    -0.00000
 AO   13 PZ MG    1   RE=     0.00000  IM=     0.01170
 AO   14  S O     2   RE=    -0.14280  IM=    -0.14280
 AO   15  S O     2   RE=     0.20086  IM=     0.20086
 AO   18 PZ O     2   RE=    -0.00878  IM=     0.00878
 AO   19  S O     2   RE=     0.31188  IM=     0.31188
 AO   23  S O     2   RE=     0.21022  IM=     0.21022
    BAND    8    E(A.U.)=      -0.215341
 AO    1  S MG    1   RE=    -0.01506  IM=    -0.01506
 AO    2  S MG    1   RE=     0.06500  IM=     0.06500
 AO    5 PZ MG    1   RE=     0.02181  IM=    -0.02181
 AO    6  S MG    1   RE=     0.05530  IM=     0.05530
 AO   10  S MG    1   RE=    -0.04585  IM=    -0.04585
 AO   13 PZ MG    1   RE=     0.00820  IM=    -0.00820
 AO   14  S O     2   RE=     0.00000  IM=    -0.05234
 AO   15  S O     2   RE=    -0.00000  IM=     0.06518
 AO   18 PZ O     2   RE=     0.49357  IM=     0.00000
 AO   19  S O     2   RE=    -0.00000  IM=     0.21198
 AO   22 PZ O     2   RE=     0.29767  IM=    -0.00000
 AO   23  S O     2   RE=     0.00000  IM=    -0.04867
 AO   26 PZ O     2   RE=     0.48037  IM=     0.00000
    BAND    9    E(A.U.)=      -0.185665
 AO    3 PX MG    1   RE=    -0.06141  IM=     0.06141
 AO    7 PX MG    1   RE=    -0.00963  IM=     0.00963
 AO   11 PX MG    1   RE=     0.00808  IM=    -0.00808
 AO   16 PX O     2   RE=    -0.53413  IM=     0.00000
 AO   20 PX O     2   RE=    -0.33795  IM=    -0.00000
 AO   24 PX O     2   RE=    -0.46976  IM=    -0.00000
    BAND   10    E(A.U.)=      -0.185665
 AO    4 PY MG    1   RE=     0.06141  IM=    -0.06141
 AO    8 PY MG    1   RE=     0.00963  IM=    -0.00963
 AO   12 PY MG    1   RE=    -0.00808  IM=     0.00808
 AO   17 PY O     2   RE=     0.53413  IM=    -0.00000
 AO   21 PY O     2   RE=     0.33795  IM=     0.00000
 AO   25 PY O     2   RE=     0.46976  IM=     0.00000
    BAND   11    E(A.U.)=       0.142273
 AO    1  S MG    1   RE=    -0.03642  IM=     0.03642
 AO    2  S MG    1   RE=     0.17340  IM=    -0.17340
 AO    5 PZ MG    1   RE=     0.05174  IM=     0.05174
 AO    6  S MG    1   RE=     0.12863  IM=    -0.12863
 AO   10  S MG    1   RE=    -0.15379  IM=     0.15379
 AO   13 PZ MG    1   RE=    -0.03054  IM=    -0.03054
 AO   14  S O     2   RE=    -0.16784  IM=    -0.00000
 AO   15  S O     2   RE=     0.14795  IM=    -0.00000
 AO   18 PZ O     2   RE=     0.00000  IM=     0.23699
 AO   19  S O     2   RE=     1.12734  IM=     0.00000
 AO   22 PZ O     2   RE=     0.00000  IM=     0.28910
 AO   23  S O     2   RE=    -0.97745  IM=    -0.00000
 AO   26 PZ O     2   RE=     0.00000  IM=    -0.18880
    BAND   12    E(A.U.)=       0.701082
 AO    1  S MG    1   RE=    -0.00000  IM=     0.03515
 AO    2  S MG    1   RE=     0.00000  IM=    -0.14002
 AO    5 PZ MG    1   RE=    -0.35810  IM=     0.00000
 AO    6  S MG    1   RE=     0.00000  IM=    -0.39802
 AO    9 PZ MG    1   RE=    -0.28267  IM=     0.00000
 AO   10  S MG    1   RE=    -0.00000  IM=     0.86633
 AO   13 PZ MG    1   RE=     1.47547  IM=    -0.00000
 AO   15  S O     2   RE=    -0.02123  IM=     0.02123
 AO   18 PZ O     2   RE=     0.04232  IM=     0.04232
 AO   19  S O     2   RE=     0.15963  IM=    -0.15963
 AO   22 PZ O     2   RE=    -0.20131  IM=    -0.20131
 AO   23  S O     2   RE=    -0.32115  IM=     0.32115
 AO   26 PZ O     2   RE=     0.71202  IM=     0.71202
    BAND   13    E(A.U.)=       0.798463
 AO    3 PX MG    1   RE=    -0.40644  IM=     0.00000
 AO    7 PX MG    1   RE=    -0.25660  IM=     0.00000
 AO   11 PX MG    1   RE=     1.34411  IM=    -0.00000
 AO   16 PX O     2   RE=     0.18666  IM=     0.18666
 AO   20 PX O     2   RE=     0.29273  IM=     0.29273
 AO   24 PX O     2   RE=    -0.29238  IM=    -0.29238
    BAND   14    E(A.U.)=       0.798463
 AO    4 PY MG    1   RE=     0.40644  IM=    -0.00000
 AO    8 PY MG    1   RE=     0.25660  IM=    -0.00000
 AO   12 PY MG    1   RE=    -1.34411  IM=     0.00000
 AO   17 PY O     2   RE=    -0.18666  IM=    -0.18666
 AO   21 PY O     2   RE=    -0.29273  IM=    -0.29273
 AO   25 PY O     2   RE=     0.29238  IM=     0.29238

    K POINT   7   (  2  1  0)
    BAND    7    E(A.U.)=      -0.847006
 AO    1  S MG    1   RE=     0.02001  IM=     0.00000
 AO    2  S MG    1   RE=    -0.07620  IM=     0.00000
 AO    3 PX MG    1   RE=    -0.00000  IM=     0.02275
 AO    4 PY MG    1   RE=     0.00000  IM=    -0.02275
 AO    5 PZ MG    1   RE=     0.00000  IM=    -0.05798
 AO    6  S MG    1   RE=    -0.07090  IM=    -0.00000
 AO    9 PZ MG    1   RE=     0.00000  IM=    -0.01371
 AO   10  S MG    1   RE=     0.07026  IM=     0.00000
 AO   13 PZ MG    1   RE=    -0.00000  IM=     0.01687
 AO   14  S O     2   RE=    -0.07872  IM=    -0.19005
 AO   15  S O     2   RE=     0.11050  IM=     0.26677
 AO   18 PZ O     2   RE=    -0.01431  IM=     0.00593
 AO   19  S O     2   RE=     0.17408  IM=     0.42027
 AO   22 PZ O     2   RE=    -0.01076  IM=     0.00446
 AO   23  S O     2   RE=     0.11359  IM=     0.27423
 AO   24 PX O     2   RE=     0.01054  IM=    -0.00437
 AO   25 PY O     2   RE=    -0.01054  IM=     0.00437
    BAND    8    E(A.U.)=      -0.265101
 AO    1  S MG    1   RE=    -0.02517  IM=    -0.01042
 AO    2  S MG    1   RE=     0.10914  IM=     0.04521
 AO    3 PX MG    1   RE=    -0.01081  IM=     0.02610
 AO    4 PY MG    1   RE=     0.01081  IM=    -0.02610
 AO    6  S MG    1   RE=     0.08653  IM=     0.03584
 AO   10  S MG    1   RE=    -0.06333  IM=    -0.02623
 AO   13 PZ MG    1   RE=     0.00425  IM=    -0.01027
 AO   14  S O     2   RE=     0.00000  IM=    -0.05680
 AO   15  S O     2   RE=     0.00000  IM=     0.07450
 AO   16 PX O     2   RE=    -0.16648  IM=    -0.00000
 AO   17 PY O     2   RE=     0.16648  IM=     0.00000
 AO   18 PZ O     2   RE=     0.38327  IM=    -0.00000
 AO   19  S O     2   RE=    -0.00000  IM=     0.20777
 AO   20 PX O     2   RE=    -0.09863  IM=    -0.00000
 AO   21 PY O     2   RE=     0.09863  IM=     0.00000
 AO   22 PZ O     2   RE=     0.22464  IM=    -0.00000
 AO   23  S O     2   RE=     0.00000  IM=    -0.01350
 AO   24 PX O     2   RE=    -0.16617  IM=    -0.00000
 AO   25 PY O     2   RE=     0.16617  IM=     0.00000
 AO   26 PZ O     2   RE=     0.38998  IM=    -0.00000
    BAND    9    E(A.U.)=      -0.195467
 AO    3 PX MG    1   RE=     0.02380  IM=    -0.05746
 AO    4 PY MG    1   RE=     0.02380  IM=    -0.05746
 AO   16 PX O     2   RE=     0.37216  IM=     0.00000
 AO   17 PY O     2   RE=     0.37216  IM=     0.00000
 AO   20 PX O     2   RE=     0.22959  IM=    -0.00000
 AO   21 PY O     2   RE=     0.22959  IM=    -0.00000
 AO   24 PX O     2   RE=     0.34019  IM=     0.00000
 AO   25 PY O     2   RE=     0.34019  IM=     0.00000
    BAND   10    E(A.U.)=      -0.194886
 AO    3 PX MG    1   RE=     0.02060  IM=    -0.04973
 AO    4 PY MG    1   RE=    -0.02060  IM=     0.04973
 AO    7 PX MG    1   RE=     0.00386  IM=    -0.00933
 AO    8 PY MG    1   RE=    -0.00386  IM=     0.00933
 AO   10  S MG    1   RE=    -0.01115  IM=    -0.00462
 AO   13 PZ MG    1   RE=     0.00603  IM=    -0.01456
 AO   15  S O     2   RE=     0.00000  IM=     0.01288
 AO   16 PX O     2   RE=     0.31915  IM=     0.00000
 AO   17 PY O     2   RE=    -0.31915  IM=    -0.00000
 AO   18 PZ O     2   RE=     0.27189  IM=    -0.00000
 AO   19  S O     2   RE=     0.00000  IM=     0.02754
 AO   20 PX O     2   RE=     0.19330  IM=     0.00000
 AO   21 PY O     2   RE=    -0.19330  IM=    -0.00000
 AO   22 PZ O     2   RE=     0.16409  IM=    -0.00000
 AO   24 PX O     2   RE=     0.29687  IM=     0.00000
 AO   25 PY O     2   RE=    -0.29687  IM=    -0.00000
 AO   26 PZ O     2   RE=     0.26197  IM=    -0.00000
    BAND   11    E(A.U.)=       0.198533
 AO    1  S MG    1   RE=    -0.01812  IM=     0.04373
 AO    2  S MG    1   RE=     0.08535  IM=    -0.20604
 AO    3 PX MG    1   RE=    -0.03973  IM=    -0.01645
 AO    4 PY MG    1   RE=     0.03973  IM=     0.01645
 AO    5 PZ MG    1   RE=     0.08290  IM=     0.03434
 AO    6  S MG    1   RE=     0.07170  IM=    -0.17311
 AO    7 PX MG    1   RE=    -0.02479  IM=    -0.01027
 AO    8 PY MG    1   RE=     0.02479  IM=     0.01027
 AO   10  S MG    1   RE=    -0.08658  IM=     0.20903
 AO   11 PX MG    1   RE=     0.08683  IM=     0.03597
 AO   12 PY MG    1   RE=    -0.08683  IM=    -0.03597
 AO   13 PZ MG    1   RE=    -0.04650  IM=    -0.01926
 AO   14  S O     2   RE=    -0.15185  IM=    -0.00000
 AO   15  S O     2   RE=     0.13504  IM=     0.00000
 AO   16 PX O     2   RE=    -0.00000  IM=    -0.08603
 AO   17 PY O     2   RE=     0.00000  IM=     0.08603
 AO   18 PZ O     2   RE=     0.00000  IM=     0.29004
 AO   19  S O     2   RE=     1.03999  IM=    -0.00000
 AO   20 PX O     2   RE=     0.00000  IM=    -0.09354
 AO   21 PY O     2   RE=    -0.00000  IM=     0.09354
 AO   22 PZ O     2   RE=     0.00000  IM=     0.33563
 AO   23  S O     2   RE=    -0.91021  IM=     0.00000
 AO   24 PX O     2   RE=    -0.00000  IM=     0.08499
 AO   25 PY O     2   RE=     0.00000  IM=    -0.08499
 AO   26 PZ O     2   RE=    -0.00000  IM=    -0.21770
    BAND   12    E(A.U.)=       0.598353
 AO    1  S MG    1   RE=     0.00000  IM=     0.04239
 AO    2  S MG    1   RE=     0.00000  IM=    -0.17974
 AO    3 PX MG    1   RE=     0.02604  IM=    -0.00000
 AO    4 PY MG    1   RE=    -0.02604  IM=     0.00000
 AO    5 PZ MG    1   RE=    -0.30728  IM=    -0.00000
 AO    6  S MG    1   RE=    -0.00000  IM=    -0.39219
 AO    7 PX MG    1   RE=     0.02477  IM=     0.00000
 AO    8 PY MG    1   RE=    -0.02477  IM=    -0.00000
 AO    9 PZ MG    1   RE=    -0.27317  IM=    -0.00000
 AO   10  S MG    1   RE=     0.00000  IM=     0.78973
 AO   11 PX MG    1   RE=    -0.02237  IM=    -0.00000
 AO   12 PY MG    1   RE=     0.02237  IM=     0.00000
 AO   13 PZ MG    1   RE=     1.21095  IM=     0.00000
 AO   15  S O     2   RE=    -0.02717  IM=     0.01126
 AO   16 PX O     2   RE=    -0.03593  IM=    -0.08674
 AO   17 PY O     2   RE=     0.03593  IM=     0.08674
 AO   19  S O     2   RE=     0.11709  IM=    -0.04850
 AO   20 PX O     2   RE=    -0.09767  IM=    -0.23580
 AO   21 PY O     2   RE=     0.09767  IM=     0.23580
 AO   22 PZ O     2   RE=    -0.07994  IM=    -0.19300
 AO   23  S O     2   RE=    -0.33447  IM=     0.13854
 AO   24 PX O     2   RE=     0.16956  IM=     0.40934
 AO   25 PY O     2   RE=    -0.16956  IM=    -0.40934
 AO   26 PZ O     2   RE=     0.23871  IM=     0.57630
    BAND   13    E(A.U.)=       0.685804
 AO    2  S MG    1   RE=     0.00000  IM=     0.03858
 AO    3 PX MG    1   RE=    -0.22473  IM=     0.00000
 AO    4 PY MG    1   RE=     0.22473  IM=    -0.00000
 AO    5 PZ MG    1   RE=    -0.07651  IM=    -0.00000
 AO    6  S MG    1   RE=    -0.00000  IM=    -0.17501
 AO    7 PX MG    1   RE=    -0.15427  IM=     0.00000
 AO    8 PY MG    1   RE=     0.15427  IM=    -0.00000
 AO    9 PZ MG    1   RE=    -0.04979  IM=    -0.00000
 AO   10  S MG    1   RE=     0.00000  IM=     0.42657
 AO   11 PX MG    1   RE=     0.61757  IM=    -0.00000
 AO   12 PY MG    1   RE=    -0.61757  IM=     0.00000
 AO   13 PZ MG    1   RE=     0.32278  IM=     0.00000
 AO   14  S O     2   RE=    -0.04159  IM=     0.01723
 AO   16 PX O     2   RE=     0.07368  IM=     0.17788
 AO   17 PY O     2   RE=    -0.07368  IM=    -0.17788
 AO   18 PZ O     2   RE=    -0.04165  IM=    -0.10056
 AO   19  S O     2   RE=     0.43535  IM=    -0.18033
 AO   20 PX O     2   RE=     0.17246  IM=     0.41635
 AO   21 PY O     2   RE=    -0.17246  IM=    -0.41635
 AO   22 PZ O     2   RE=    -0.11014  IM=    -0.26591
 AO   23  S O     2   RE=    -0.50519  IM=     0.20926
 AO   24 PX O     2   RE=    -0.25671  IM=    -0.61975
 AO   25 PY O     2   RE=     0.25671  IM=     0.61975
 AO   26 PZ O     2   RE=     0.23609  IM=     0.56998
    BAND   14    E(A.U.)=       0.734605
 AO    3 PX MG    1   RE=    -0.26470  IM=     0.00000
 AO    4 PY MG    1   RE=    -0.26470  IM=     0.00000
 AO    7 PX MG    1   RE=    -0.19315  IM=    -0.00000
 AO    8 PY MG    1   RE=    -0.19315  IM=    -0.00000
 AO   11 PX MG    1   RE=     0.87840  IM=    -0.00000
 AO   12 PY MG    1   RE=     0.87840  IM=    -0.00000
 AO   16 PX O     2   RE=     0.07431  IM=     0.17941
 AO   17 PY O     2   RE=     0.07431  IM=     0.17941
 AO   20 PX O     2   RE=     0.13421  IM=     0.32402
 AO   21 PY O     2   RE=     0.13421  IM=     0.32402
 AO   24 PX O     2   RE=    -0.15632  IM=    -0.37739
 AO   25 PY O     2   RE=    -0.15632  IM=    -0.37739

    K POINT   8   (  3  1  0)
    BAND    7    E(A.U.)=      -0.828654
 AO    1  S MG    1   RE=    -0.00000  IM=    -0.01332
 AO    2  S MG    1   RE=     0.00000  IM=     0.05111
 AO    3 PX MG    1   RE=     0.04283  IM=    -0.00000
 AO    4 PY MG    1   RE=    -0.04283  IM=     0.00000
 AO    5 PZ MG    1   RE=    -0.06392  IM=     0.00000
 AO    6  S MG    1   RE=    -0.00000  IM=     0.04702
 AO    7 PX MG    1   RE=     0.01126  IM=     0.00000
 AO    8 PY MG    1   RE=    -0.01126  IM=    -0.00000
 AO    9 PZ MG    1   RE=    -0.01610  IM=    -0.00000
 AO   10  S MG    1   RE=     0.00000  IM=    -0.04652
 AO   11 PX MG    1   RE=    -0.01787  IM=    -0.00000
 AO   12 PY MG    1   RE=     0.01787  IM=     0.00000
 AO   13 PZ MG    1   RE=     0.02321  IM=     0.00000
 AO   14  S O     2   RE=    -0.21179  IM=    -0.00000
 AO   15  S O     2   RE=     0.29536  IM=    -0.00000
 AO   18 PZ O     2   RE=     0.00000  IM=     0.01350
 AO   19  S O     2   RE=     0.47989  IM=     0.00000
 AO   22 PZ O     2   RE=    -0.00000  IM=     0.01116
 AO   23  S O     2   RE=     0.29107  IM=    -0.00000
 AO   24 PX O     2   RE=     0.00000  IM=    -0.01484
 AO   25 PY O     2   RE=    -0.00000  IM=     0.01484
    BAND    8    E(A.U.)=      -0.319140
 AO    1  S MG    1   RE=     0.03161  IM=     0.00000
 AO    2  S MG    1   RE=    -0.13976  IM=     0.00000
 AO    3 PX MG    1   RE=     0.00000  IM=    -0.03194
 AO    4 PY MG    1   RE=    -0.00000  IM=     0.03194
 AO    5 PZ MG    1   RE=    -0.00000  IM=    -0.02827
 AO    6  S MG    1   RE=    -0.09411  IM=    -0.00000
 AO   10  S MG    1   RE=     0.05332  IM=     0.00000
 AO   11 PX MG    1   RE=     0.00000  IM=    -0.01156
 AO   12 PY MG    1   RE=    -0.00000  IM=     0.01156
 AO   14  S O     2   RE=     0.00000  IM=     0.04198
 AO   15  S O     2   RE=     0.00000  IM=    -0.05799
 AO   16 PX O     2   RE=     0.20248  IM=     0.00000
 AO   17 PY O     2   RE=    -0.20248  IM=    -0.00000
 AO   18 PZ O     2   RE=    -0.29943  IM=    -0.00000
 AO   19  S O     2   RE=    -0.00000  IM=    -0.13597
 AO   20 PX O     2   RE=     0.11512  IM=     0.00000
 AO   21 PY O     2   RE=    -0.11512  IM=    -0.00000
 AO   22 PZ O     2   RE=    -0.17387  IM=    -0.00000
 AO   23  S O     2   RE=     0.00000  IM=    -0.02107
 AO   24 PX O     2   RE=     0.21162  IM=     0.00000
 AO   25 PY O     2   RE=    -0.21162  IM=    -0.00000
 AO   26 PZ O     2   RE=    -0.30555  IM=     0.00000
    BAND    9    E(A.U.)=      -0.208907
 AO    3 PX MG    1   RE=    -0.00000  IM=     0.04073
 AO    4 PY MG    1   RE=     0.00000  IM=    -0.04073
 AO    5 PZ MG    1   RE=     0.00000  IM=    -0.03372
 AO    7 PX MG    1   RE=     0.00000  IM=     0.01256
 AO    8 PY MG    1   RE=    -0.00000  IM=    -0.01256
 AO    9 PZ MG    1   RE=    -0.00000  IM=    -0.01049
 AO   10  S MG    1   RE=     0.01593  IM=    -0.00000
 AO   11 PX MG    1   RE=    -0.00000  IM=    -0.01878
 AO   12 PY MG    1   RE=     0.00000  IM=     0.01878
 AO   13 PZ MG    1   RE=     0.00000  IM=     0.02798
 AO   14  S O     2   RE=    -0.00000  IM=     0.01310
 AO   15  S O     2   RE=    -0.00000  IM=    -0.02019
 AO   16 PX O     2   RE=    -0.26537  IM=    -0.00000
 AO   17 PY O     2   RE=     0.26537  IM=     0.00000
 AO   18 PZ O     2   RE=    -0.35215  IM=    -0.00000
 AO   19  S O     2   RE=     0.00000  IM=    -0.03345
 AO   20 PX O     2   RE=    -0.15457  IM=    -0.00000
 AO   21 PY O     2   RE=     0.15457  IM=     0.00000
 AO   22 PZ O     2   RE=    -0.20769  IM=    -0.00000
 AO   23  S O     2   RE=    -0.00000  IM=    -0.02913
 AO   24 PX O     2   RE=    -0.25756  IM=    -0.00000
 AO   25 PY O     2   RE=     0.25756  IM=     0.00000
 AO   26 PZ O     2   RE=    -0.34539  IM=    -0.00000
    BAND   10    E(A.U.)=      -0.203907
 AO    3 PX MG    1   RE=    -0.00000  IM=    -0.05385
 AO    4 PY MG    1   RE=    -0.00000  IM=    -0.05385
 AO   16 PX O     2   RE=     0.36788  IM=     0.00000
 AO   17 PY O     2   RE=     0.36788  IM=     0.00000
 AO   20 PX O     2   RE=     0.22271  IM=    -0.00000
 AO   21 PY O     2   RE=     0.22271  IM=    -0.00000
 AO   24 PX O     2   RE=     0.34690  IM=     0.00000
 AO   25 PY O     2   RE=     0.34690  IM=     0.00000
    BAND   11    E(A.U.)=       0.263680
 AO    1  S MG    1   RE=     0.00000  IM=     0.04004
 AO    2  S MG    1   RE=    -0.00000  IM=    -0.17793
 AO    3 PX MG    1   RE=    -0.08543  IM=     0.00000
 AO    4 PY MG    1   RE=     0.08543  IM=    -0.00000
 AO    5 PZ MG    1   RE=     0.10856  IM=    -0.00000
 AO    6  S MG    1   RE=    -0.00000  IM=    -0.21092
 AO    7 PX MG    1   RE=    -0.07990  IM=    -0.00000
 AO    8 PY MG    1   RE=     0.07990  IM=     0.00000
 AO    9 PZ MG    1   RE=     0.05735  IM=     0.00000
 AO   10  S MG    1   RE=     0.00000  IM=     0.27186
 AO   11 PX MG    1   RE=     0.25585  IM=     0.00000
 AO   12 PY MG    1   RE=    -0.25585  IM=    -0.00000
 AO   13 PZ MG    1   RE=    -0.17772  IM=    -0.00000
 AO   14  S O     2   RE=    -0.13544  IM=     0.00000
 AO   15  S O     2   RE=     0.12581  IM=    -0.00000
 AO   16 PX O     2   RE=    -0.00000  IM=    -0.11101
 AO   17 PY O     2   RE=     0.00000  IM=     0.11101
 AO   18 PZ O     2   RE=     0.00000  IM=     0.29653
 AO   19  S O     2   RE=     0.88779  IM=    -0.00000
 AO   20 PX O     2   RE=    -0.00000  IM=    -0.10254
 AO   21 PY O     2   RE=     0.00000  IM=     0.10254
 AO   22 PZ O     2   RE=     0.00000  IM=     0.35473
 AO   23  S O     2   RE=    -0.68933  IM=     0.00000
 AO   24 PX O     2   RE=    -0.00000  IM=     0.10975
 AO   25 PY O     2   RE=     0.00000  IM=    -0.10975
 AO   26 PZ O     2   RE=    -0.00000  IM=    -0.25746
    BAND   12    E(A.U.)=       0.493189
 AO    1  S MG    1   RE=     0.04150  IM=     0.00000
 AO    2  S MG    1   RE=    -0.21397  IM=     0.00000
 AO    3 PX MG    1   RE=     0.00000  IM=    -0.09019
 AO    4 PY MG    1   RE=    -0.00000  IM=     0.09019
 AO    5 PZ MG    1   RE=    -0.00000  IM=     0.17127
 AO    6  S MG    1   RE=    -0.17368  IM=    -0.00000
 AO    7 PX MG    1   RE=    -0.00000  IM=    -0.09026
 AO    8 PY MG    1   RE=     0.00000  IM=     0.09026
 AO    9 PZ MG    1   RE=     0.00000  IM=     0.19450
 AO   10  S MG    1   RE=     0.23403  IM=     0.00000
 AO   11 PX MG    1   RE=     0.00000  IM=     0.23077
 AO   12 PY MG    1   RE=    -0.00000  IM=    -0.23077
 AO   13 PZ MG    1   RE=     0.00000  IM=    -0.71042
 AO   14  S O     2   RE=     0.00000  IM=    -0.04243
 AO   15  S O     2   RE=     0.00000  IM=     0.02643
 AO   16 PX O     2   RE=    -0.23865  IM=    -0.00000
 AO   17 PY O     2   RE=     0.23865  IM=     0.00000
 AO   18 PZ O     2   RE=     0.09924  IM=    -0.00000
 AO   19  S O     2   RE=    -0.00000  IM=     0.23934
 AO   20 PX O     2   RE=    -0.45737  IM=    -0.00000
 AO   21 PY O     2   RE=     0.45737  IM=     0.00000
 AO   22 PZ O     2   RE=     0.05067  IM=    -0.00000
 AO   23  S O     2   RE=     0.00000  IM=    -0.04964
 AO   24 PX O     2   RE=     0.62714  IM=     0.00000
 AO   25 PY O     2   RE=    -0.62714  IM=    -0.00000
 AO   26 PZ O     2   RE=    -0.01498  IM=     0.00000
    BAND   13    E(A.U.)=       0.582693
 AO    1  S MG    1   RE=    -0.00000  IM=     0.02636
 AO    2  S MG    1   RE=     0.00000  IM=    -0.05603
 AO    3 PX MG    1   RE=    -0.15272  IM=     0.00000
 AO    4 PY MG    1   RE=     0.15272  IM=    -0.00000
 AO    5 PZ MG    1   RE=    -0.23003  IM=    -0.00000
 AO    6  S MG    1   RE=     0.00000  IM=    -0.47932
 AO    7 PX MG    1   RE=    -0.11250  IM=     0.00000
 AO    8 PY MG    1   RE=     0.11250  IM=    -0.00000
 AO    9 PZ MG    1   RE=    -0.19086  IM=     0.00000
 AO   10  S MG    1   RE=    -0.00000  IM=     1.01139
 AO   11 PX MG    1   RE=     0.43340  IM=    -0.00000
 AO   12 PY MG    1   RE=    -0.43340  IM=     0.00000
 AO   13 PZ MG    1   RE=     0.84453  IM=    -0.00000
 AO   14  S O     2   RE=    -0.03907  IM=     0.00000
 AO   16 PX O     2   RE=     0.00000  IM=     0.08010
 AO   17 PY O     2   RE=    -0.00000  IM=    -0.08010
 AO   18 PZ O     2   RE=    -0.00000  IM=    -0.15492
 AO   19  S O     2   RE=     0.42286  IM=    -0.00000
 AO   20 PX O     2   RE=     0.00000  IM=     0.20529
 AO   21 PY O     2   RE=    -0.00000  IM=    -0.20529
 AO   22 PZ O     2   RE=     0.00000  IM=    -0.33868
 AO   23  S O     2   RE=    -0.52959  IM=     0.00000
 AO   24 PX O     2   RE=    -0.00000  IM=    -0.28778
 AO   25 PY O     2   RE=     0.00000  IM=     0.28778
 AO   26 PZ O     2   RE=    -0.00000  IM=     0.63071
    BAND   14    E(A.U.)=       0.663594
 AO    3 PX MG    1   RE=    -0.25547  IM=     0.00000
 AO    4 PY MG    1   RE=    -0.25547  IM=     0.00000
 AO    7 PX MG    1   RE=    -0.22541  IM=    -0.00000
 AO    8 PY MG    1   RE=    -0.22541  IM=    -0.00000
 AO   11 PX MG    1   RE=     0.96104  IM=     0.00000
 AO   12 PY MG    1   RE=     0.96104  IM=     0.00000
 AO   16 PX O     2   RE=    -0.00000  IM=     0.16403
 AO   17 PY O     2   RE=    -0.00000  IM=     0.16403
 AO   20 PX O     2   RE=    -0.00000  IM=     0.23101
 AO   21 PY O     2   RE=    -0.00000  IM=     0.23101
 AO   24 PX O     2   RE=     0.00000  IM=    -0.15998
 AO   25 PY O     2   RE=     0.00000  IM=    -0.15998

    K POINT   9   (  4  1  0)
    BAND    7    E(A.U.)=      -0.816245
 AO    2  S MG    1   RE=     0.00000  IM=    -0.01438
 AO    3 PX MG    1   RE=    -0.05738  IM=    -0.00000
 AO    4 PY MG    1   RE=     0.05738  IM=     0.00000
 AO    5 PZ MG    1   RE=     0.05882  IM=     0.00000
 AO    6  S MG    1   RE=    -0.00000  IM=    -0.01261
 AO    7 PX MG    1   RE=    -0.01434  IM=     0.00000
 AO    8 PY MG    1   RE=     0.01434  IM=    -0.00000
 AO    9 PZ MG    1   RE=     0.01594  IM=    -0.00000
 AO   10  S MG    1   RE=     0.00000  IM=     0.01209
 AO   11 PX MG    1   RE=     0.02193  IM=    -0.00000
 AO   12 PY MG    1   RE=    -0.02193  IM=     0.00000
 AO   13 PZ MG    1   RE=    -0.02581  IM=     0.00000
 AO   14  S O     2   RE=     0.19996  IM=     0.08282
 AO   15  S O     2   RE=    -0.27769  IM=    -0.11502
 AO   19  S O     2   RE=    -0.45990  IM=    -0.19050
 AO   23  S O     2   RE=    -0.26688  IM=    -0.11055
    BAND    8    E(A.U.)=      -0.349670
 AO    1  S MG    1   RE=     0.03398  IM=     0.00000
 AO    2  S MG    1   RE=    -0.15306  IM=    -0.00000
 AO    3 PX MG    1   RE=    -0.00000  IM=    -0.02524
 AO    4 PY MG    1   RE=     0.00000  IM=     0.02524
 AO    5 PZ MG    1   RE=     0.00000  IM=    -0.04099
 AO    6  S MG    1   RE=    -0.08770  IM=    -0.00000
 AO   10  S MG    1   RE=     0.03463  IM=     0.00000
 AO   14  S O     2   RE=    -0.00453  IM=     0.01094
 AO   15  S O     2   RE=     0.00649  IM=    -0.01568
 AO   16 PX O     2   RE=     0.20367  IM=     0.08436
 AO   17 PY O     2   RE=    -0.20367  IM=    -0.08436
 AO   18 PZ O     2   RE=    -0.22851  IM=    -0.09465
 AO   19  S O     2   RE=     0.01347  IM=    -0.03251
 AO   20 PX O     2   RE=     0.11530  IM=     0.04776
 AO   21 PY O     2   RE=    -0.11530  IM=    -0.04776
 AO   22 PZ O     2   RE=    -0.13018  IM=    -0.05392
 AO   23  S O     2   RE=     0.00439  IM=    -0.01060
 AO   24 PX O     2   RE=     0.21177  IM=     0.08772
 AO   25 PY O     2   RE=    -0.21177  IM=    -0.08772
 AO   26 PZ O     2   RE=    -0.23599  IM=    -0.09775
    BAND    9    E(A.U.)=      -0.220931
 AO    2  S MG    1   RE=     0.00422  IM=     0.01020
 AO    3 PX MG    1   RE=    -0.02379  IM=     0.00985
 AO    4 PY MG    1   RE=     0.02379  IM=    -0.00985
 AO    5 PZ MG    1   RE=     0.05842  IM=    -0.02420
 AO    7 PX MG    1   RE=    -0.01400  IM=     0.00580
 AO    8 PY MG    1   RE=     0.01400  IM=    -0.00580
 AO    9 PZ MG    1   RE=     0.01657  IM=    -0.00686
 AO   11 PX MG    1   RE=     0.03044  IM=    -0.01261
 AO   12 PY MG    1   RE=    -0.03044  IM=     0.01261
 AO   13 PZ MG    1   RE=    -0.03440  IM=     0.01425
 AO   14  S O     2   RE=    -0.01540  IM=    -0.00000
 AO   15  S O     2   RE=     0.02587  IM=    -0.00000
 AO   16 PX O     2   RE=    -0.00000  IM=    -0.22212
 AO   17 PY O     2   RE=     0.00000  IM=     0.22212
 AO   18 PZ O     2   RE=     0.00000  IM=    -0.39354
 AO   19  S O     2   RE=     0.02927  IM=     0.00000
 AO   20 PX O     2   RE=    -0.00000  IM=    -0.12944
 AO   21 PY O     2   RE=     0.00000  IM=     0.12944
 AO   22 PZ O     2   RE=     0.00000  IM=    -0.22928
 AO   23  S O     2   RE=     0.05465  IM=    -0.00000
 AO   24 PX O     2   RE=     0.00000  IM=    -0.21535
 AO   25 PY O     2   RE=    -0.00000  IM=     0.21535
 AO   26 PZ O     2   RE=     0.00000  IM=    -0.38551
    BAND   10    E(A.U.)=      -0.206345
 AO    3 PX MG    1   RE=    -0.01449  IM=    -0.03499
 AO    4 PY MG    1   RE=    -0.01449  IM=    -0.03499
 AO   16 PX O     2   RE=     0.36725  IM=     0.00000
 AO   17 PY O     2   RE=     0.36725  IM=     0.00000
 AO   20 PX O     2   RE=     0.21986  IM=    -0.00000
 AO   21 PY O     2   RE=     0.21986  IM=    -0.00000
 AO   24 PX O     2   RE=     0.35259  IM=     0.00000
 AO   25 PY O     2   RE=     0.35259  IM=     0.00000
    BAND   11    E(A.U.)=       0.311298
 AO    1  S MG    1   RE=     0.01637  IM=    -0.00678
 AO    2  S MG    1   RE=    -0.06913  IM=     0.02863
 AO    3 PX MG    1   RE=     0.05173  IM=     0.12489
 AO    4 PY MG    1   RE=    -0.05173  IM=    -0.12489
 AO    5 PZ MG    1   RE=    -0.05095  IM=    -0.12301
 AO    6  S MG    1   RE=    -0.10471  IM=     0.04337
 AO    7 PX MG    1   RE=     0.06148  IM=     0.14843
 AO    8 PY MG    1   RE=    -0.06148  IM=    -0.14843
 AO    9 PZ MG    1   RE=    -0.05178  IM=    -0.12501
 AO   10  S MG    1   RE=     0.14324  IM=    -0.05933
 AO   11 PX MG    1   RE=    -0.19061  IM=    -0.46017
 AO   12 PY MG    1   RE=     0.19061  IM=     0.46017
 AO   13 PZ MG    1   RE=     0.15245  IM=     0.36805
 AO   14  S O     2   RE=     0.00000  IM=     0.13027
 AO   15  S O     2   RE=    -0.00000  IM=    -0.12980
 AO   16 PX O     2   RE=    -0.01541  IM=     0.00000
 AO   17 PY O     2   RE=     0.01541  IM=    -0.00000
 AO   18 PZ O     2   RE=     0.21939  IM=    -0.00000
 AO   19  S O     2   RE=    -0.00000  IM=    -0.75601
 AO   20 PX O     2   RE=     0.02832  IM=     0.00000
 AO   21 PY O     2   RE=    -0.02832  IM=    -0.00000
 AO   22 PZ O     2   RE=     0.32438  IM=    -0.00000
 AO   23  S O     2   RE=     0.00000  IM=     0.40201
 AO   26 PZ O     2   RE=    -0.25906  IM=    -0.00000
    BAND   12    E(A.U.)=       0.415206
 AO    1  S MG    1   RE=    -0.04540  IM=     0.01880
 AO    2  S MG    1   RE=     0.23025  IM=    -0.09537
 AO    3 PX MG    1   RE=     0.01925  IM=     0.04647
 AO    4 PY MG    1   RE=    -0.01925  IM=    -0.04647
 AO    5 PZ MG    1   RE=    -0.01521  IM=    -0.03673
 AO    6  S MG    1   RE=     0.16449  IM=    -0.06813
 AO    7 PX MG    1   RE=     0.01751  IM=     0.04228
 AO    8 PY MG    1   RE=    -0.01751  IM=    -0.04228
 AO    9 PZ MG    1   RE=    -0.03329  IM=    -0.08036
 AO   10  S MG    1   RE=    -0.14832  IM=     0.06144
 AO   11 PX MG    1   RE=    -0.04384  IM=    -0.10583
 AO   12 PY MG    1   RE=     0.04384  IM=     0.10583
 AO   13 PZ MG    1   RE=     0.11711  IM=     0.28272
 AO   14  S O     2   RE=    -0.00000  IM=     0.02560
 AO   15  S O     2   RE=     0.00000  IM=    -0.01946
 AO   16 PX O     2   RE=     0.30625  IM=    -0.00000
 AO   17 PY O     2   RE=    -0.30625  IM=     0.00000
 AO   18 PZ O     2   RE=    -0.23999  IM=     0.00000
 AO   19  S O     2   RE=     0.00000  IM=    -0.14099
 AO   20 PX O     2   RE=     0.43395  IM=    -0.00000
 AO   21 PY O     2   RE=    -0.43395  IM=     0.00000
 AO   22 PZ O     2   RE=    -0.29008  IM=     0.00000
 AO   23  S O     2   RE=    -0.00000  IM=     0.03653
 AO   24 PX O     2   RE=    -0.49505  IM=     0.00000
 AO   25 PY O     2   RE=     0.49505  IM=    -0.00000
 AO   26 PZ O     2   RE=     0.35604  IM=    -0.00000
    BAND   13    E(A.U.)=       0.554922
 AO    1  S MG    1   RE=    -0.00000  IM=     0.03779
 AO    2  S MG    1   RE=     0.00000  IM=    -0.10234
 AO    3 PX MG    1   RE=    -0.12927  IM=     0.00000
 AO    4 PY MG    1   RE=     0.12927  IM=    -0.00000
 AO    5 PZ MG    1   RE=    -0.25270  IM=    -0.00000
 AO    6  S MG    1   RE=     0.00000  IM=    -0.57606
 AO    7 PX MG    1   RE=    -0.11396  IM=     0.00000
 AO    8 PY MG    1   RE=     0.11396  IM=    -0.00000
 AO    9 PZ MG    1   RE=    -0.21385  IM=     0.00000
 AO   10  S MG    1   RE=    -0.00000  IM=     1.15366
 AO   11 PX MG    1   RE=     0.45241  IM=    -0.00000
 AO   12 PY MG    1   RE=    -0.45241  IM=     0.00000
 AO   13 PZ MG    1   RE=     0.85539  IM=    -0.00000
 AO   14  S O     2   RE=    -0.01473  IM=    -0.00610
 AO   15  S O     2   RE=     0.01049  IM=     0.00435
 AO   18 PZ O     2   RE=     0.06264  IM=    -0.15122
 AO   19  S O     2   RE=     0.12085  IM=     0.05006
 AO   20 PX O     2   RE=    -0.02310  IM=     0.05576
 AO   21 PY O     2   RE=     0.02310  IM=    -0.05576
 AO   22 PZ O     2   RE=     0.12526  IM=    -0.30241
 AO   23  S O     2   RE=    -0.12231  IM=    -0.05066
 AO   24 PX O     2   RE=     0.04711  IM=    -0.11373
 AO   25 PY O     2   RE=    -0.04711  IM=     0.11373
 AO   26 PZ O     2   RE=    -0.18032  IM=     0.43534
    BAND   14    E(A.U.)=       0.614842
 AO    3 PX MG    1   RE=    -0.25216  IM=    -0.00000
 AO    4 PY MG    1   RE=    -0.25216  IM=    -0.00000
 AO    7 PX MG    1   RE=    -0.22871  IM=     0.00000
 AO    8 PY MG    1   RE=    -0.22871  IM=     0.00000
 AO   11 PX MG    1   RE=     0.95545  IM=    -0.00000
 AO   12 PY MG    1   RE=     0.95545  IM=    -0.00000
 AO   16 PX O     2   RE=    -0.04997  IM=     0.12064
 AO   17 PY O     2   RE=    -0.04997  IM=     0.12064
 AO   20 PX O     2   RE=    -0.06763  IM=     0.16327
 AO   21 PY O     2   RE=    -0.06763  IM=     0.16327
 AO   24 PX O     2   RE=     0.05722  IM=    -0.13814
 AO   25 PY O     2   RE=     0.05722  IM=    -0.13814

    K POINT  10   (  5  1  0)
    BAND    7    E(A.U.)=      -0.818982
 AO    2  S MG    1   RE=    -0.01883  IM=    -0.01883
 AO    3 PX MG    1   RE=     0.04438  IM=    -0.04438
 AO    4 PY MG    1   RE=    -0.04438  IM=     0.04438
 AO    5 PZ MG    1   RE=    -0.03087  IM=     0.03087
 AO    6  S MG    1   RE=    -0.01723  IM=    -0.01723
 AO    7 PX MG    1   RE=     0.01037  IM=    -0.01037
 AO    8 PY MG    1   RE=    -0.01037  IM=     0.01037
 AO    9 PZ MG    1   RE=    -0.00894  IM=     0.00894
 AO   10  S MG    1   RE=     0.01706  IM=     0.01706
 AO   11 PX MG    1   RE=    -0.01459  IM=     0.01459
 AO   12 PY MG    1   RE=     0.01459  IM=    -0.01459
 AO   13 PZ MG    1   RE=     0.01524  IM=    -0.01524
 AO   14  S O     2   RE=    -0.21530  IM=     0.00000
 AO   15  S O     2   RE=     0.29947  IM=     0.00000
 AO   19  S O     2   RE=     0.49241  IM=    -0.00000
 AO   23  S O     2   RE=     0.29174  IM=     0.00000
 AO   26 PZ O     2   RE=    -0.00000  IM=    -0.01346
    BAND    8    E(A.U.)=      -0.342724
 AO    1  S MG    1   RE=     0.03386  IM=     0.00000
 AO    2  S MG    1   RE=    -0.15175  IM=     0.00000
 AO    3 PX MG    1   RE=    -0.00000  IM=    -0.01141
 AO    4 PY MG    1   RE=     0.00000  IM=     0.01141
 AO    5 PZ MG    1   RE=    -0.00000  IM=    -0.04392
 AO    6  S MG    1   RE=    -0.09098  IM=    -0.00000
 AO   10  S MG    1   RE=     0.04069  IM=     0.00000
 AO   13 PZ MG    1   RE=    -0.00000  IM=    -0.01050
 AO   14  S O     2   RE=     0.01629  IM=    -0.01629
 AO   15  S O     2   RE=    -0.02292  IM=     0.02292
 AO   16 PX O     2   RE=     0.17218  IM=     0.17218
 AO   17 PY O     2   RE=    -0.17218  IM=    -0.17218
 AO   18 PZ O     2   RE=    -0.14608  IM=    -0.14608
 AO   19  S O     2   RE=    -0.04985  IM=     0.04985
 AO   20 PX O     2   RE=     0.09895  IM=     0.09895
 AO   21 PY O     2   RE=    -0.09895  IM=    -0.09895
 AO   22 PZ O     2   RE=    -0.08076  IM=    -0.08076
 AO   23  S O     2   RE=    -0.01339  IM=     0.01339
 AO   24 PX O     2   RE=     0.17618  IM=     0.17618
 AO   25 PY O     2   RE=    -0.17618  IM=    -0.17618
 AO   26 PZ O     2   RE=    -0.15638  IM=    -0.15638
    BAND    9    E(A.U.)=      -0.223731
 AO    2  S MG    1   RE=    -0.00867  IM=     0.00867
 AO    3 PX MG    1   RE=    -0.00739  IM=    -0.00739
 AO    4 PY MG    1   RE=     0.00739  IM=     0.00739
 AO    5 PZ MG    1   RE=     0.06083  IM=     0.06083
 AO    6  S MG    1   RE=    -0.01613  IM=     0.01613
 AO    7 PX MG    1   RE=    -0.00823  IM=    -0.00823
 AO    8 PY MG    1   RE=     0.00823  IM=     0.00823
 AO    9 PZ MG    1   RE=     0.01371  IM=     0.01371
 AO   10  S MG    1   RE=     0.02062  IM=    -0.02062
 AO   11 PX MG    1   RE=     0.02087  IM=     0.02087
 AO   12 PY MG    1   RE=    -0.02087  IM=    -0.02087
 AO   13 PZ MG    1   RE=    -0.01974  IM=    -0.01974
 AO   14  S O     2   RE=     0.00000  IM=    -0.01492
 AO   15  S O     2   RE=     0.00000  IM=     0.02379
 AO   16 PX O     2   RE=     0.18048  IM=     0.00000
 AO   17 PY O     2   RE=    -0.18048  IM=    -0.00000
 AO   18 PZ O     2   RE=     0.43097  IM=    -0.00000
 AO   19  S O     2   RE=    -0.00000  IM=     0.03319
 AO   20 PX O     2   RE=     0.10678  IM=     0.00000
 AO   21 PY O     2   RE=    -0.10678  IM=    -0.00000
 AO   22 PZ O     2   RE=     0.24813  IM=     0.00000
 AO   23  S O     2   RE=     0.00000  IM=     0.04327
 AO   24 PX O     2   RE=     0.17457  IM=    -0.00000
 AO   25 PY O     2   RE=    -0.17457  IM=     0.00000
 AO   26 PZ O     2   RE=     0.42567  IM=    -0.00000
    BAND   10    E(A.U.)=      -0.201374
 AO    3 PX MG    1   RE=    -0.01156  IM=    -0.01156
 AO    4 PY MG    1   RE=    -0.01156  IM=    -0.01156
 AO   16 PX O     2   RE=     0.37067  IM=     0.00000
 AO   17 PY O     2   RE=     0.37067  IM=     0.00000
 AO   20 PX O     2   RE=     0.22091  IM=    -0.00000
 AO   21 PY O     2   RE=     0.22091  IM=    -0.00000
 AO   24 PX O     2   RE=     0.35852  IM=    -0.00000
 AO   25 PY O     2   RE=     0.35852  IM=    -0.00000
    BAND   11    E(A.U.)=       0.298980
 AO    1  S MG    1   RE=    -0.01752  IM=     0.01752
 AO    2  S MG    1   RE=     0.07724  IM=    -0.07724
 AO    3 PX MG    1   RE=     0.09649  IM=     0.09649
 AO    4 PY MG    1   RE=    -0.09649  IM=    -0.09649
 AO    5 PZ MG    1   RE=    -0.06783  IM=    -0.06783
 AO    6  S MG    1   RE=     0.09474  IM=    -0.09474
 AO    7 PX MG    1   RE=     0.09778  IM=     0.09778
 AO    8 PY MG    1   RE=    -0.09778  IM=    -0.09778
 AO    9 PZ MG    1   RE=    -0.07986  IM=    -0.07986
 AO   10  S MG    1   RE=    -0.11221  IM=     0.11221
 AO   11 PX MG    1   RE=    -0.30561  IM=    -0.30561
 AO   12 PY MG    1   RE=     0.30561  IM=     0.30561
 AO   13 PZ MG    1   RE=     0.23595  IM=     0.23595
 AO   14  S O     2   RE=     0.00000  IM=     0.12998
 AO   15  S O     2   RE=     0.00000  IM=    -0.12869
 AO   16 PX O     2   RE=     0.19304  IM=    -0.00000
 AO   17 PY O     2   RE=    -0.19304  IM=     0.00000
 AO   19  S O     2   RE=    -0.00000  IM=    -0.77476
 AO   20 PX O     2   RE=     0.24868  IM=    -0.00000
 AO   21 PY O     2   RE=    -0.24868  IM=     0.00000
 AO   22 PZ O     2   RE=     0.07094  IM=     0.00000
 AO   23  S O     2   RE=     0.00000  IM=     0.45874
 AO   24 PX O     2   RE=    -0.20944  IM=     0.00000
 AO   25 PY O     2   RE=     0.20944  IM=    -0.00000
 AO   26 PZ O     2   RE=    -0.04003  IM=    -0.00000
    BAND   12    E(A.U.)=       0.429982
 AO    1  S MG    1   RE=    -0.00000  IM=     0.04471
 AO    2  S MG    1   RE=     0.00000  IM=    -0.23232
 AO    3 PX MG    1   RE=    -0.07018  IM=    -0.00000
 AO    4 PY MG    1   RE=     0.07018  IM=     0.00000
 AO    5 PZ MG    1   RE=     0.08442  IM=    -0.00000
 AO    6  S MG    1   RE=     0.00000  IM=    -0.14688
 AO    7 PX MG    1   RE=    -0.11163  IM=    -0.00000
 AO    8 PY MG    1   RE=     0.11163  IM=     0.00000
 AO    9 PZ MG    1   RE=     0.05136  IM=     0.00000
 AO   10  S MG    1   RE=    -0.00000  IM=     0.12559
 AO   11 PX MG    1   RE=     0.36690  IM=     0.00000
 AO   12 PY MG    1   RE=    -0.36690  IM=    -0.00000
 AO   13 PZ MG    1   RE=    -0.08578  IM=    -0.00000
 AO   14  S O     2   RE=    -0.02398  IM=    -0.02398
 AO   15  S O     2   RE=     0.01995  IM=     0.01995
 AO   16 PX O     2   RE=     0.16874  IM=    -0.16874
 AO   17 PY O     2   RE=    -0.16874  IM=     0.16874
 AO   18 PZ O     2   RE=    -0.21873  IM=     0.21873
 AO   19  S O     2   RE=     0.11646  IM=     0.11646
 AO   20 PX O     2   RE=     0.20331  IM=    -0.20331
 AO   21 PY O     2   RE=    -0.20331  IM=     0.20331
 AO   22 PZ O     2   RE=    -0.38936  IM=     0.38936
 AO   24 PX O     2   RE=    -0.22511  IM=     0.22511
 AO   25 PY O     2   RE=     0.22511  IM=    -0.22511
 AO   26 PZ O     2   RE=     0.51350  IM=    -0.51350
    BAND   13    E(A.U.)=       0.569483
 AO    1  S MG    1   RE=    -0.00000  IM=     0.04061
 AO    2  S MG    1   RE=     0.00000  IM=    -0.12396
 AO    3 PX MG    1   RE=    -0.13012  IM=     0.00000
 AO    4 PY MG    1   RE=     0.13012  IM=    -0.00000
 AO    5 PZ MG    1   RE=    -0.24055  IM=     0.00000
 AO    6  S MG    1   RE=     0.00000  IM=    -0.56445
 AO    7 PX MG    1   RE=    -0.15217  IM=    -0.00000
 AO    8 PY MG    1   RE=     0.15217  IM=     0.00000
 AO    9 PZ MG    1   RE=    -0.17704  IM=     0.00000
 AO   10  S MG    1   RE=    -0.00000  IM=     1.13028
 AO   11 PX MG    1   RE=     0.59862  IM=     0.00000
 AO   12 PY MG    1   RE=    -0.59862  IM=    -0.00000
 AO   13 PZ MG    1   RE=     0.67180  IM=    -0.00000
 AO   15  S O     2   RE=     0.02187  IM=     0.02187
 AO   16 PX O     2   RE=     0.03762  IM=    -0.03762
 AO   17 PY O     2   RE=    -0.03762  IM=     0.03762
 AO   18 PZ O     2   RE=     0.12871  IM=    -0.12871
 AO   19  S O     2   RE=    -0.11258  IM=    -0.11258
 AO   22 PZ O     2   RE=     0.28945  IM=    -0.28945
 AO   23  S O     2   RE=     0.23517  IM=     0.23517
 AO   24 PX O     2   RE=     0.07273  IM=    -0.07273
 AO   25 PY O     2   RE=    -0.07273  IM=     0.07273
 AO   26 PZ O     2   RE=    -0.39915  IM=     0.39915
    BAND   14    E(A.U.)=       0.604112
 AO    3 PX MG    1   RE=    -0.25274  IM=     0.00000
 AO    4 PY MG    1   RE=    -0.25274  IM=     0.00000
 AO    7 PX MG    1   RE=    -0.21534  IM=     0.00000
 AO    8 PY MG    1   RE=    -0.21534  IM=     0.00000
 AO   11 PX MG    1   RE=     0.92901  IM=    -0.00000
 AO   12 PY MG    1   RE=     0.92901  IM=    -0.00000
 AO   16 PX O     2   RE=    -0.07168  IM=     0.07168
 AO   17 PY O     2   RE=    -0.07168  IM=     0.07168
 AO   20 PX O     2   RE=    -0.13750  IM=     0.13750
 AO   21 PY O     2   RE=    -0.13750  IM=     0.13750
 AO   24 PX O     2   RE=     0.23423  IM=    -0.23423
 AO   25 PY O     2   RE=     0.23423  IM=    -0.23423

    K POINT  11   (  6  1  0)
    BAND    7    E(A.U.)=      -0.834691
 AO    1  S MG    1   RE=     0.01451  IM=     0.00601
 AO    2  S MG    1   RE=    -0.05574  IM=    -0.02309
 AO    3 PX MG    1   RE=     0.02196  IM=    -0.05301
 AO    4 PY MG    1   RE=    -0.02196  IM=     0.05301
 AO    5 PZ MG    1   RE=    -0.00874  IM=     0.02110
 AO    6  S MG    1   RE=    -0.05057  IM=    -0.02095
 AO    7 PX MG    1   RE=     0.00497  IM=    -0.01200
 AO    8 PY MG    1   RE=    -0.00497  IM=     0.01200
 AO   10  S MG    1   RE=     0.04946  IM=     0.02049
 AO   11 PX MG    1   RE=    -0.00642  IM=     0.01550
 AO   12 PY MG    1   RE=     0.00642  IM=    -0.01550
 AO   13 PZ MG    1   RE=     0.00451  IM=    -0.01088
 AO   14  S O     2   RE=    -0.20968  IM=     0.00000
 AO   15  S O     2   RE=     0.29296  IM=    -0.00000
 AO   16 PX O     2   RE=     0.00000  IM=     0.01221
 AO   17 PY O     2   RE=    -0.00000  IM=    -0.01221
 AO   19  S O     2   RE=     0.47073  IM=     0.00000
 AO   23  S O     2   RE=     0.29459  IM=    -0.00000
 AO   26 PZ O     2   RE=    -0.00000  IM=    -0.01080
    BAND    8    E(A.U.)=      -0.302298
 AO    1  S MG    1   RE=     0.03138  IM=     0.00000
 AO    2  S MG    1   RE=    -0.13750  IM=     0.00000
 AO    5 PZ MG    1   RE=    -0.00000  IM=    -0.03184
 AO    6  S MG    1   RE=    -0.09962  IM=    -0.00000
 AO   10  S MG    1   RE=     0.06420  IM=     0.00000
 AO   11 PX MG    1   RE=    -0.00000  IM=     0.01206
 AO   12 PY MG    1   RE=     0.00000  IM=    -0.01206
 AO   14  S O     2   RE=     0.04528  IM=    -0.01876
 AO   15  S O     2   RE=    -0.06120  IM=     0.02535
 AO   16 PX O     2   RE=     0.10771  IM=     0.26004
 AO   17 PY O     2   RE=    -0.10771  IM=    -0.26004
 AO   18 PZ O     2   RE=    -0.05637  IM=    -0.13609
 AO   19  S O     2   RE=    -0.15295  IM=     0.06335
 AO   20 PX O     2   RE=     0.06306  IM=     0.15224
 AO   21 PY O     2   RE=    -0.06306  IM=    -0.15224
 AO   22 PZ O     2   RE=    -0.03087  IM=    -0.07452
 AO   23  S O     2   RE=    -0.01218  IM=     0.00504
 AO   24 PX O     2   RE=     0.10922  IM=     0.26369
 AO   25 PY O     2   RE=    -0.10922  IM=    -0.26369
 AO   26 PZ O     2   RE=    -0.06115  IM=    -0.14764
    BAND    9    E(A.U.)=      -0.214926
[...]
 AO    3 PX MG    1   RE=    -0.00000  IM=     0.04840
 AO    4 PY MG    1   RE=    -0.00000  IM=    -0.09995
 AO    5 PZ MG    1   RE=    -0.00000  IM=    -0.07699
 AO    6  S MG    1   RE=    -0.53355  IM=    -0.00000
 AO    7 PX MG    1   RE=    -0.00000  IM=     0.05433
 AO    8 PY MG    1   RE=    -0.00000  IM=    -0.08521
 AO    9 PZ MG    1   RE=     0.00000  IM=     0.05793
 AO   10  S MG    1   RE=     0.88223  IM=     0.00000
 AO   11 PX MG    1   RE=     0.00000  IM=    -0.18897
 AO   12 PY MG    1   RE=     0.00000  IM=     0.31990
 AO   13 PZ MG    1   RE=    -0.00000  IM=    -0.25096
 AO   14  S O     2   RE=    -0.06882  IM=    -0.02851
 AO   15  S O     2   RE=     0.06316  IM=     0.02616
 AO   16 PX O     2   RE=     0.01538  IM=    -0.03712
 AO   17 PY O     2   RE=    -0.07967  IM=     0.19235
 AO   18 PZ O     2   RE=    -0.10753  IM=     0.25961
 AO   19  S O     2   RE=     0.49328  IM=     0.20432
 AO   20 PX O     2   RE=     0.00916  IM=    -0.02212
 AO   21 PY O     2   RE=    -0.09280  IM=     0.22404
 AO   22 PZ O     2   RE=    -0.17278  IM=     0.41713
 AO   23  S O     2   RE=    -0.43297  IM=    -0.17934
 AO   24 PX O     2   RE=    -0.01931  IM=     0.04663
 AO   25 PY O     2   RE=     0.08623  IM=    -0.20817
 AO   26 PZ O     2   RE=     0.23836  IM=    -0.57545
    BAND   12    E(A.U.)=       0.433628
 AO    1  S MG    1   RE=     0.01886  IM=     0.04553
 AO    2  S MG    1   RE=    -0.06876  IM=    -0.16599
 AO    3 PX MG    1   RE=     0.06107  IM=    -0.02530
 AO    4 PY MG    1   RE=    -0.05084  IM=     0.02106
 AO    5 PZ MG    1   RE=    -0.15778  IM=     0.06535
 AO    6  S MG    1   RE=    -0.18922  IM=    -0.45681
 AO    7 PX MG    1   RE=    -0.03390  IM=     0.01404
 AO    8 PY MG    1   RE=    -0.02425  IM=     0.01005
 AO    9 PZ MG    1   RE=    -0.03660  IM=     0.01516
 AO   10  S MG    1   RE=     0.33181  IM=     0.80107
 AO   11 PX MG    1   RE=     0.16402  IM=    -0.06794
 AO   12 PY MG    1   RE=     0.07394  IM=    -0.03063
 AO   13 PZ MG    1   RE=     0.09753  IM=    -0.04040
 AO   14  S O     2   RE=     0.00000  IM=     0.03778
 AO   15  S O     2   RE=    -0.00000  IM=    -0.01875
 AO   16 PX O     2   RE=     0.19515  IM=    -0.00000
 AO   17 PY O     2   RE=    -0.20164  IM=     0.00000
 AO   18 PZ O     2   RE=     0.27281  IM=     0.00000
 AO   19  S O     2   RE=    -0.00000  IM=    -0.33632
 AO   20 PX O     2   RE=     0.39060  IM=    -0.00000
 AO   21 PY O     2   RE=    -0.26511  IM=    -0.00000
 AO   22 PZ O     2   RE=     0.49763  IM=    -0.00000
 AO   23  S O     2   RE=     0.00000  IM=     0.36195
 AO   24 PX O     2   RE=    -0.60238  IM=     0.00000
 AO   25 PY O     2   RE=     0.24799  IM=     0.00000
 AO   26 PZ O     2   RE=    -0.67261  IM=     0.00000
    BAND   13    E(A.U.)=       0.471686
 AO    1  S MG    1   RE=    -0.00559  IM=    -0.01350
 AO    3 PX MG    1   RE=     0.16736  IM=    -0.06932
 AO    4 PY MG    1   RE=    -0.10427  IM=     0.04319
 AO    5 PZ MG    1   RE=     0.09979  IM=    -0.04133
 AO    6  S MG    1   RE=     0.13278  IM=     0.32057
 AO    7 PX MG    1   RE=     0.02632  IM=    -0.01090
 AO    8 PY MG    1   RE=    -0.07627  IM=     0.03159
 AO    9 PZ MG    1   RE=     0.01041  IM=    -0.00431
 AO   10  S MG    1   RE=    -0.27244  IM=    -0.65772
 AO   11 PX MG    1   RE=    -0.03746  IM=     0.01552
 AO   12 PY MG    1   RE=     0.28981  IM=    -0.12004
 AO   13 PZ MG    1   RE=    -0.02139  IM=     0.00886
 AO   14  S O     2   RE=    -0.00000  IM=     0.05515
 AO   15  S O     2   RE=     0.00000  IM=    -0.04378
 AO   16 PX O     2   RE=     0.30402  IM=    -0.00000
 AO   17 PY O     2   RE=    -0.05064  IM=     0.00000
 AO   18 PZ O     2   RE=    -0.23115  IM=    -0.00000
 AO   19  S O     2   RE=     0.00000  IM=    -0.42420
 AO   20 PX O     2   RE=     0.64429  IM=     0.00000
 AO   21 PY O     2   RE=    -0.09873  IM=     0.00000
 AO   22 PZ O     2   RE=    -0.38512  IM=    -0.00000
 AO   23  S O     2   RE=     0.00000  IM=     0.39130
 AO   24 PX O     2   RE=    -0.97630  IM=    -0.00000
 AO   25 PY O     2   RE=     0.13981  IM=    -0.00000
 AO   26 PZ O     2   RE=     0.54823  IM=     0.00000
    BAND   14    E(A.U.)=       0.577858
 AO    1  S MG    1   RE=    -0.00000  IM=     0.01684
 AO    2  S MG    1   RE=    -0.00000  IM=    -0.05775
 AO    3 PX MG    1   RE=    -0.13565  IM=     0.00000
 AO    4 PY MG    1   RE=    -0.27662  IM=    -0.00000
 AO    5 PZ MG    1   RE=     0.02922  IM=     0.00000
 AO    6  S MG    1   RE=     0.00000  IM=    -0.20137
 AO    7 PX MG    1   RE=    -0.03975  IM=     0.00000
 AO    8 PY MG    1   RE=    -0.21308  IM=     0.00000
 AO    9 PZ MG    1   RE=    -0.03675  IM=     0.00000
 AO   10  S MG    1   RE=    -0.00000  IM=     0.37663
 AO   11 PX MG    1   RE=     0.15125  IM=    -0.00000
 AO   12 PY MG    1   RE=     0.91821  IM=    -0.00000
 AO   13 PZ MG    1   RE=     0.12667  IM=    -0.00000
 AO   14  S O     2   RE=    -0.02744  IM=     0.06625
 AO   15  S O     2   RE=     0.03053  IM=    -0.07371
 AO   16 PX O     2   RE=    -0.19265  IM=    -0.07980
 AO   17 PY O     2   RE=    -0.16540  IM=    -0.06851
 AO   18 PZ O     2   RE=    -0.09169  IM=    -0.03798
 AO   19  S O     2   RE=     0.19589  IM=    -0.47292
 AO   20 PX O     2   RE=    -0.37638  IM=    -0.15590
 AO   21 PY O     2   RE=    -0.18172  IM=    -0.07527
 AO   22 PZ O     2   RE=    -0.16161  IM=    -0.06694
 AO   23  S O     2   RE=    -0.16026  IM=     0.38690
 AO   24 PX O     2   RE=     0.58571  IM=     0.24261
 AO   25 PY O     2   RE=     0.11668  IM=     0.04833
 AO   26 PZ O     2   RE=     0.30032  IM=     0.12440

    K POINT  27   (  6  3  1)
    BAND    7    E(A.U.)=      -0.809297
 AO    2  S MG    1   RE=    -0.00817  IM=     0.00817
 AO    3 PX MG    1   RE=    -0.03273  IM=    -0.03273
 AO    4 PY MG    1   RE=     0.04398  IM=     0.04398
 AO   14  S O     2   RE=    -0.21736  IM=    -0.00000
 AO   15  S O     2   RE=     0.30915  IM=    -0.00000
 AO   19  S O     2   RE=     0.47297  IM=     0.00000
 AO   23  S O     2   RE=     0.34285  IM=    -0.00000
    BAND    8    E(A.U.)=      -0.311101
 AO    1  S MG    1   RE=    -0.00000  IM=    -0.02631
 AO    2  S MG    1   RE=    -0.00000  IM=     0.11576
 AO    3 PX MG    1   RE=    -0.09848  IM=    -0.00000
 AO    6  S MG    1   RE=     0.00000  IM=     0.08224
 AO    7 PX MG    1   RE=    -0.01111  IM=     0.00000
 AO   10  S MG    1   RE=    -0.00000  IM=    -0.05332
 AO   12 PY MG    1   RE=    -0.01534  IM=     0.00000
 AO   14  S O     2   RE=     0.01356  IM=    -0.01356
 AO   15  S O     2   RE=    -0.01929  IM=     0.01929
 AO   16 PX O     2   RE=     0.25245  IM=     0.25245
 AO   17 PY O     2   RE=    -0.16324  IM=    -0.16324
 AO   19  S O     2   RE=    -0.04142  IM=     0.04142
 AO   20 PX O     2   RE=     0.14177  IM=     0.14177
 AO   21 PY O     2   RE=    -0.09618  IM=    -0.09618
 AO   23  S O     2   RE=    -0.01219  IM=     0.01219
 AO   24 PX O     2   RE=     0.26170  IM=     0.26170
 AO   25 PY O     2   RE=    -0.16103  IM=    -0.16103
    BAND    9    E(A.U.)=      -0.283703
 AO    5 PZ MG    1   RE=    -0.15189  IM=     0.00000
 AO    9 PZ MG    1   RE=    -0.01438  IM=    -0.00000
 AO   18 PZ O     2   RE=    -0.31692  IM=    -0.31692
 AO   22 PZ O     2   RE=    -0.17517  IM=    -0.17517
 AO   26 PZ O     2   RE=    -0.33527  IM=    -0.33527
    BAND   10    E(A.U.)=      -0.223591
 AO    1  S MG    1   RE=     0.00894  IM=     0.00894
 AO    2  S MG    1   RE=    -0.03740  IM=    -0.03740
 AO    3 PX MG    1   RE=    -0.05049  IM=     0.05049
 AO    6  S MG    1   RE=    -0.03921  IM=    -0.03921
 AO    7 PX MG    1   RE=    -0.00722  IM=     0.00722
 AO   10  S MG    1   RE=     0.04134  IM=     0.04134
 AO   11 PX MG    1   RE=     0.01100  IM=    -0.01100
 AO   16 PX O     2   RE=     0.27263  IM=     0.00000
 AO   17 PY O     2   RE=     0.42019  IM=     0.00000
 AO   20 PX O     2   RE=     0.16231  IM=     0.00000
 AO   21 PY O     2   RE=     0.26127  IM=    -0.00000
 AO   23  S O     2   RE=     0.00000  IM=     0.01108
 AO   24 PX O     2   RE=     0.26287  IM=     0.00000
 AO   25 PY O     2   RE=     0.38616  IM=     0.00000
    BAND   11    E(A.U.)=       0.376782
 AO    1  S MG    1   RE=     0.02775  IM=     0.02775
 AO    2  S MG    1   RE=    -0.13169  IM=    -0.13169
 AO    3 PX MG    1   RE=     0.08351  IM=    -0.08351
 AO    4 PY MG    1   RE=    -0.08724  IM=     0.08724
 AO    6  S MG    1   RE=    -0.13268  IM=    -0.13268
 AO    8 PY MG    1   RE=    -0.05845  IM=     0.05845
 AO   10  S MG    1   RE=     0.16011  IM=     0.16011
 AO   11 PX MG    1   RE=     0.04134  IM=    -0.04134
 AO   12 PY MG    1   RE=     0.20823  IM=    -0.20823
 AO   14  S O     2   RE=    -0.00000  IM=     0.09048
 AO   15  S O     2   RE=    -0.00000  IM=    -0.07095
 AO   16 PX O     2   RE=     0.33949  IM=    -0.00000
 AO   17 PY O     2   RE=    -0.22611  IM=    -0.00000
 AO   19  S O     2   RE=     0.00000  IM=    -0.69047
 AO   20 PX O     2   RE=     0.54708  IM=    -0.00000
 AO   21 PY O     2   RE=    -0.29073  IM=    -0.00000
 AO   23  S O     2   RE=    -0.00000  IM=     0.64898
 AO   24 PX O     2   RE=    -0.67375  IM=     0.00000
 AO   25 PY O     2   RE=     0.28778  IM=     0.00000
    BAND   12    E(A.U.)=       0.442659
 AO    1  S MG    1   RE=     0.06999  IM=    -0.00000
 AO    2  S MG    1   RE=    -0.25047  IM=    -0.00000
 AO    3 PX MG    1   RE=     0.00000  IM=     0.15823
 AO    4 PY MG    1   RE=     0.00000  IM=    -0.11242
 AO    6  S MG    1   RE=    -0.73092  IM=     0.00000
 AO    7 PX MG    1   RE=     0.00000  IM=     0.16397
 AO    8 PY MG    1   RE=     0.00000  IM=    -0.12098
 AO   10  S MG    1   RE=     1.31196  IM=    -0.00000
 AO   11 PX MG    1   RE=    -0.00000  IM=    -0.57354
 AO   12 PY MG    1   RE=    -0.00000  IM=     0.43385
 AO   14  S O     2   RE=    -0.03863  IM=    -0.03863
 AO   15  S O     2   RE=     0.04651  IM=     0.04651
 AO   16 PX O     2   RE=    -0.02748  IM=     0.02748
 AO   17 PY O     2   RE=    -0.17058  IM=     0.17058
 AO   19  S O     2   RE=     0.21724  IM=     0.21724
 AO   20 PX O     2   RE=    -0.09374  IM=     0.09374
 AO   21 PY O     2   RE=    -0.17805  IM=     0.17805
 AO   23  S O     2   RE=    -0.09653  IM=    -0.09653
 AO   24 PX O     2   RE=     0.07603  IM=    -0.07603
 AO   25 PY O     2   RE=     0.12213  IM=    -0.12213
    BAND   13    E(A.U.)=       0.449570
 AO    5 PZ MG    1   RE=    -0.14815  IM=     0.14815
 AO    9 PZ MG    1   RE=     0.01541  IM=    -0.01541
 AO   13 PZ MG    1   RE=    -0.13206  IM=     0.13206
 AO   18 PZ O     2   RE=     0.43151  IM=    -0.00000
 AO   22 PZ O     2   RE=     0.89097  IM=    -0.00000
 AO   26 PZ O     2   RE=    -1.38320  IM=     0.00000
    BAND   14    E(A.U.)=       0.572868
 AO    3 PX MG    1   RE=    -0.16141  IM=     0.00000
 AO    4 PY MG    1   RE=    -0.27635  IM=    -0.00000
 AO    6  S MG    1   RE=     0.00000  IM=    -0.19633
 AO    7 PX MG    1   RE=    -0.06164  IM=     0.00000
 AO    8 PY MG    1   RE=    -0.21986  IM=    -0.00000
 AO   10  S MG    1   RE=    -0.00000  IM=     0.41070
 AO   11 PX MG    1   RE=     0.26994  IM=    -0.00000
 AO   12 PY MG    1   RE=     0.94891  IM=     0.00000
 AO   14  S O     2   RE=    -0.04519  IM=     0.04519
 AO   15  S O     2   RE=     0.05110  IM=    -0.05110
 AO   16 PX O     2   RE=    -0.18700  IM=    -0.18700
 AO   17 PY O     2   RE=    -0.02193  IM=    -0.02193
 AO   19  S O     2   RE=     0.31480  IM=    -0.31480
 AO   20 PX O     2   RE=    -0.31856  IM=    -0.31856
 AO   21 PY O     2   RE=    -0.02854  IM=    -0.02854
 AO   23  S O     2   RE=    -0.24836  IM=     0.24836
 AO   24 PX O     2   RE=     0.47492  IM=     0.47492
 AO   25 PY O     2   RE=     0.02453  IM=     0.02453

    K POINT  28   (  5  4  1)
    BAND    7    E(A.U.)=      -0.806457
 AO    2  S MG    1   RE=     0.01792  IM=    -0.01792
 AO    4 PY MG    1   RE=     0.03078  IM=     0.03078
 AO    6  S MG    1   RE=     0.01011  IM=    -0.01011
 AO   14  S O     2   RE=    -0.21821  IM=    -0.00000
 AO   15  S O     2   RE=     0.31230  IM=     0.00000
 AO   19  S O     2   RE=     0.46820  IM=    -0.00000
 AO   23  S O     2   RE=     0.35713  IM=     0.00000
    BAND    8    E(A.U.)=      -0.328588
 AO    5 PZ MG    1   RE=    -0.17287  IM=     0.00000
 AO    9 PZ MG    1   RE=    -0.01887  IM=     0.00000
 AO   18 PZ O     2   RE=    -0.29154  IM=    -0.29154
 AO   22 PZ O     2   RE=    -0.16870  IM=    -0.16870
 AO   26 PZ O     2   RE=    -0.29369  IM=    -0.29369
    BAND    9    E(A.U.)=      -0.252486
 AO    3 PX MG    1   RE=    -0.13963  IM=    -0.00000
 AO    7 PX MG    1   RE=    -0.01309  IM=    -0.00000
 AO   16 PX O     2   RE=     0.33678  IM=     0.33678
 AO   20 PX O     2   RE=     0.19752  IM=     0.19752
 AO   24 PX O     2   RE=     0.33023  IM=     0.33023
    BAND   10    E(A.U.)=      -0.240141
 AO    1  S MG    1   RE=     0.01364  IM=     0.01364
 AO    2  S MG    1   RE=    -0.05688  IM=    -0.05688
 AO    4 PY MG    1   RE=    -0.06426  IM=     0.06426
 AO    6  S MG    1   RE=    -0.05926  IM=    -0.05926
 AO   10  S MG    1   RE=     0.06128  IM=     0.06128
 AO   17 PY O     2   RE=     0.48482  IM=    -0.00000
 AO   19  S O     2   RE=    -0.00000  IM=     0.01499
 AO   21 PY O     2   RE=     0.30667  IM=    -0.00000
 AO   25 PY O     2   RE=     0.43261  IM=    -0.00000
    BAND   11    E(A.U.)=       0.353549
 AO    1  S MG    1   RE=     0.08425  IM=    -0.00000
 AO    2  S MG    1   RE=    -0.30011  IM=    -0.00000
 AO    4 PY MG    1   RE=     0.00000  IM=    -0.07868
 AO    6  S MG    1   RE=    -0.82818  IM=     0.00000
 AO    8 PY MG    1   RE=     0.00000  IM=    -0.08688
 AO   10  S MG    1   RE=     1.42499  IM=    -0.00000
 AO   12 PY MG    1   RE=    -0.00000  IM=     0.33543
 AO   14  S O     2   RE=    -0.05576  IM=    -0.05576
 AO   15  S O     2   RE=     0.05493  IM=     0.05493
 AO   17 PY O     2   RE=    -0.12442  IM=     0.12442
 AO   19  S O     2   RE=     0.37857  IM=     0.37857
 AO   21 PY O     2   RE=    -0.17182  IM=     0.17182
 AO   23  S O     2   RE=    -0.31427  IM=    -0.31427
 AO   25 PY O     2   RE=     0.19888  IM=    -0.19888
    BAND   12    E(A.U.)=       0.423690
 AO    5 PZ MG    1   RE=    -0.14648  IM=     0.14648
 AO    9 PZ MG    1   RE=     0.03299  IM=    -0.03299
 AO   13 PZ MG    1   RE=    -0.15104  IM=     0.15104
 AO   18 PZ O     2   RE=     0.49676  IM=    -0.00000
 AO   22 PZ O     2   RE=     0.78189  IM=    -0.00000
 AO   26 PZ O     2   RE=    -1.09221  IM=     0.00000
    BAND   13    E(A.U.)=       0.552477
 AO    3 PX MG    1   RE=     0.18415  IM=    -0.18415
 AO    7 PX MG    1   RE=     0.01392  IM=    -0.01392
 AO   11 PX MG    1   RE=    -0.02759  IM=     0.02759
 AO   16 PX O     2   RE=     0.41334  IM=    -0.00000
 AO   20 PX O     2   RE=     0.89051  IM=     0.00000
 AO   24 PX O     2   RE=    -1.45254  IM=    -0.00000
    BAND   14    E(A.U.)=       0.598628
 AO    1  S MG    1   RE=     0.00000  IM=     0.02102
 AO    2  S MG    1   RE=    -0.00000  IM=    -0.08436
 AO    4 PY MG    1   RE=    -0.30749  IM=    -0.00000
 AO    6  S MG    1   RE=    -0.00000  IM=    -0.19951
 AO    8 PY MG    1   RE=    -0.19344  IM=     0.00000
 AO   10  S MG    1   RE=     0.00000  IM=     0.34539
 AO   12 PY MG    1   RE=     0.84950  IM=    -0.00000
 AO   14  S O     2   RE=    -0.05982  IM=     0.05982
 AO   15  S O     2   RE=     0.05167  IM=    -0.05167
 AO   17 PY O     2   RE=    -0.23269  IM=    -0.23269
 AO   19  S O     2   RE=     0.49784  IM=    -0.49784
 AO   21 PY O     2   RE=    -0.30424  IM=    -0.30424
 AO   23  S O     2   RE=    -0.50001  IM=     0.50001
 AO   25 PY O     2   RE=     0.30549  IM=     0.30549

    K POINT  29   (  6  4  2)
    BAND    7    E(A.U.)=      -0.805330
 AO    4 PY MG    1   RE=     0.06191  IM=    -0.00000
 AO   14  S O     2   RE=    -0.21853  IM=     0.00000
 AO   15  S O     2   RE=     0.31256  IM=     0.00000
 AO   19  S O     2   RE=     0.46984  IM=    -0.00000
 AO   23  S O     2   RE=     0.35670  IM=     0.00000
    BAND    8    E(A.U.)=      -0.294333
 AO    5 PZ MG    1   RE=     0.15825  IM=     0.00000
 AO    9 PZ MG    1   RE=     0.01270  IM=    -0.00000
 AO   18 PZ O     2   RE=    -0.00000  IM=     0.43974
 AO   22 PZ O     2   RE=    -0.00000  IM=     0.24490
 AO   26 PZ O     2   RE=    -0.00000  IM=     0.46397
    BAND    9    E(A.U.)=      -0.294333
 AO    3 PX MG    1   RE=    -0.15825  IM=    -0.00000
 AO    7 PX MG    1   RE=    -0.01270  IM=     0.00000
 AO   16 PX O     2   RE=    -0.00000  IM=     0.43974
 AO   20 PX O     2   RE=    -0.00000  IM=     0.24490
 AO   24 PX O     2   RE=    -0.00000  IM=     0.46397
    BAND   10    E(A.U.)=      -0.247348
 AO    1  S MG    1   RE=     0.02667  IM=     0.00000
 AO    2  S MG    1   RE=    -0.11221  IM=     0.00000
 AO    6  S MG    1   RE=    -0.11104  IM=    -0.00000
 AO   10  S MG    1   RE=     0.10995  IM=     0.00000
 AO   17 PY O     2   RE=     0.47753  IM=    -0.00000
 AO   21 PY O     2   RE=     0.29801  IM=     0.00000
 AO   25 PY O     2   RE=     0.43703  IM=    -0.00000
    BAND   11    E(A.U.)=       0.411853
 AO    1  S MG    1   RE=     0.08600  IM=     0.00000
 AO    2  S MG    1   RE=    -0.31304  IM=     0.00000
 AO    6  S MG    1   RE=    -0.84815  IM=    -0.00000
 AO   10  S MG    1   RE=     1.46992  IM=     0.00000
 AO   17 PY O     2   RE=    -0.33494  IM=    -0.00000
 AO   21 PY O     2   RE=    -0.40448  IM=     0.00000
 AO   25 PY O     2   RE=     0.33220  IM=    -0.00000
    BAND   12    E(A.U.)=       0.445345
 AO    3 PX MG    1   RE=    -0.00000  IM=    -0.21196
 AO    7 PX MG    1   RE=    -0.00000  IM=     0.04677
 AO   11 PX MG    1   RE=     0.00000  IM=    -0.24790
 AO   16 PX O     2   RE=     0.44803  IM=    -0.00000
 AO   20 PX O     2   RE=     0.87258  IM=     0.00000
 AO   24 PX O     2   RE=    -1.34888  IM=    -0.00000
    BAND   13    E(A.U.)=       0.445345
 AO    5 PZ MG    1   RE=     0.00000  IM=     0.21196
 AO    9 PZ MG    1   RE=     0.00000  IM=    -0.04677
 AO   13 PZ MG    1   RE=    -0.00000  IM=     0.24790
 AO   18 PZ O     2   RE=     0.44803  IM=    -0.00000
 AO   22 PZ O     2   RE=     0.87258  IM=     0.00000
 AO   26 PZ O     2   RE=    -1.34888  IM=    -0.00000
    BAND   14    E(A.U.)=       0.520021
 AO    4 PY MG    1   RE=    -0.31969  IM=     0.00000
 AO    8 PY MG    1   RE=    -0.23722  IM=     0.00000
 AO   12 PY MG    1   RE=     0.99322  IM=    -0.00000
 AO   14  S O     2   RE=    -0.12380  IM=    -0.00000
 AO   15  S O     2   RE=     0.12386  IM=    -0.00000
 AO   19  S O     2   RE=     0.91546  IM=     0.00000
 AO   23  S O     2   RE=    -0.80602  IM=    -0.00000
 TTTTTTTTTTTTTTTTTTTTTTTTTTTTTT ANBD        TELAPSE        0.07 TCPU        0.04
 ENDPROP   
 TTTTTTTTTTTTTTTTTTTTTTTTTTTTTT END         TELAPSE        0.07 TCPU        0.04
 EEEEEEEEEE TERMINATION  DATE 09 07 2025 TIME 10:45:43.5
NODE    0 CPU TIME =         0.040
    TOTAL CPU TIME =         0.040
Wed 09 Jul 2025 10:45:43 AM CEST
total 13016
-rw-r--r-- 1 modalis modalis   155648 Jul  9 10:45 fort.10.pe0
-rw-r--r-- 1 modalis modalis    73672 Jul  9 10:45 fort.11.pe0
-rw-r--r-- 1 modalis modalis   410328 Jul  9 10:45 fort.13.pe0
-rw-r--r-- 1 modalis modalis        0 Jul  9 10:45 fort.15.pe0
-rw-r--r-- 1 modalis modalis        0 Jul  9 10:45 fort.26.pe0
-rw-r--r-- 1 modalis modalis    73672 Jul  9 10:45 fort.3.pe0
-rw-r--r-- 1 modalis modalis    38400 Jul  9 10:45 fort.61.pe0
-rw-r--r-- 1 modalis modalis    24352 Jul  9 10:45 fort.62.pe0
-rw-r--r-- 1 modalis modalis   297672 Jul  9 10:45 fort.8.pe0
-rw-r--r-- 1 modalis modalis   130748 Jul  9 10:45 fort.9
-rw-r--r-- 1 modalis modalis       35 Jul  9 10:45 INPUT
-rwxr-xr-x 1 modalis modalis 12108056 Jul  9 10:45 Pproperties-567833
