          80 PROCESSORS WORKING

         
 *******************************************************************************
 *                                                                             *
 *                               CRYSTAL14                                     *
 *                      public : 1.0.3 - Sep 1st, 2014                         *
 *                       HTTP://WWW.CRYSTAL.UNITO.IT                           *
 *                                                                             *
 *                              MAIN AUTHORS                                   *
 *                                                                             *
 *  R. DOVESI(1,11), V.R. SAUNDERS(2), C. ROETTI(1,11), R. ORLANDO(1,11),      *
 *  C.M. ZICOVICH-WILSON(1,3), F. PASCALE(4), B. CIVALLERI(1,11),              *
 *  K. DOLL(5), N.M. HARRISON(2,6), I. J. BUSH(7), Ph. D'ARCO(8),              *
 *  M. LLUNELL(9), M. CAUSA'(10), Y. NOEL(8)                                   *
 *                                                                             *
 *        CONTRIBUTIONS TO THE CURRENT RELEASE HAVE BEEN GIVEN BY              *
 *                                                                             *
 *  L. MASCHIO(1,11), S. CASASSA(1,11), A. ERBA(1,11), M. FERRABONE(1,11),     *
 *  M. DE LA PIERRE(1,11), M. FERRERO(1,11), V. LACIVITA(1,11),                *
 *  J. BAIMA(1,11), E. ALBANESE(1,11), M.F. PEINTINGER(12), R. BAST(13),       *
 *  M. RERAT(14), B. KIRTMAN(15), R. DEMICHELIS(1,16)                          *
 *                                                                             *
 * (1) THEORETICAL CHEMISTRY GROUP - UNIVERSITA' DI TORINO - TORINO (ITALY)    *
 *     http://www.crystal.unito.it                                             *
 * (2) COMPUTATIONAL SCIENCE & ENGINEERING DEPARTMENT - STFC DARESBURY (UK)    *
 *     http://www.stfc.ac.uk/CSE/randd/cmg/CRYSTAL/25806.aspx                  *
 * (3) UNIVERSIDAD AUTONOMA DEL ESTADO DE MORELOS - CUERNAVACA (MEXICO)        *
 * (4) UNIVERSITE' DE LORRAINE - NANCY (FRANCE)                                *
 * (5) UNIVERSITAET ULM - ULM (GERMANY); (6) IMPERIAL COLLEGE - LONDON (UK)    *
 * (7) NAG - OXFORD (UK); (8) UPMC - SORBONNE UNIVERSITES - PARIS (FRANCE)     *
 * (9) UNIVERSIDAD DE BARCELONA - BARCELONA (SPAIN)                            *
 *(10) UNIVERSITA' DI NAPOLI "FEDERICO II" - NAPOLI (ITALY)                    *
 *(11) NIS - NANOSTRUCTURED INTERFACES AND SURFACES - TORINO (ITALY)           *
 *(12) MPI FUER CHEMISCHE ENERGIEKONVERSION - MUELHEIM AN DER RUHR (GERMANY)   *
 *(13) UNIVERSITY OF STOCKHOLM - STOCKHOLM (SWEDEN)                            *
 *(14) UNIVERSITE' DE PAU ET DES PAYS DE L'ADOUR - PAU (FRANCE)                *
 *(15) UNIVERSITY OF CALIFORNIA SANTA BARBARA - SANTA BARBARA (USA)            *
 *(16) CURTIN UNIVERSITY - PERTH (AUSTRALIA)                                   *
 *                                                                             *
 ********************************************************************************
 EEEEEEEEEE STARTING  DATE 26 04 2020 TIME 08:16:11.8
 NOTT-401 MOF                                                                    

 GEOMETRY INPUT FROM EXTERNAL FILE (FORTRAN UNIT 34)
 3D - CRYSTAL 

 *******************************************************************************
 LATTICE PARAMETERS  (ANGSTROMS AND DEGREES) - PRIMITIVE CELL
       A          B          C         ALPHA      BETA     GAMMA        VOLUME
   17.48966   17.45402   17.01008     97.4596   97.5350  138.3444    3210.47452
 INFORMATION **** CHKGRP **** SPGR WITH NO INVERSION

 NUMBER OF IRREDUCIBLE ATOMS IN THE CELL:  131

 CARTESIAN COORDINATES (ANGSTROM) - IRREDUCIBLE ATOMS AND SYMMETRY RELATED

 AT.IRR.  AT  AT.N.          X                   Y                   Z
     1     1    21   -5.831948189667E+00  1.443727711774E+00 -2.684325833190E+00
     2     2    21   -5.531174017716E+00 -1.264795401174E+00  3.517168607091E+00
     3     3    21   -7.039507010567E+00 -1.300899974920E-01 -5.771391038446E+00
     4     4    21   -4.290237763124E+00  2.988894955620E-01  4.462096280040E-01
     5     5    21    5.825184431197E+00 -1.452039504174E+00  2.748471486158E+00
     6     6    21    5.521388357878E+00  1.248419086330E+00 -3.488311076971E+00
     7     7    21    7.051666915393E+00  1.438426098620E-01  5.781984269501E+00
     8     8    21    4.310047200053E+00 -3.005105820120E-01 -3.796505437690E-01
     9     9    16   -4.042518462800E-02  3.715171453960E-01 -1.831175118412E+00
    10    10    16   -1.060757699410E-01  1.097093190112E+01 -1.816684133691E+00
    11    11    16    7.330299783200E-02 -3.247265199260E-01  1.921510302889E+00
    12    12    16    1.036692263630E-01 -1.092578231280E+01  1.830884273821E+00
    13    13    16    5.109887654741E+00  5.519667636972E+00 -1.295764663757E+00
    14    14    16   -5.366952817180E+00  5.856939264336E+00 -1.223256976755E+00
    15    15    16   -5.255291346785E+00 -5.528075347910E+00  1.287753621906E+00
    16    16    16    5.383872409714E+00 -5.850779917144E+00  1.283167530183E+00
    17    17     8   -5.752864992255E+00  1.383394621600E-01 -1.051348873099E+00
    18    18     8   -5.596155584097E+00  2.951009938800E-02  5.160572757076E+00
    19    19     8   -5.643026106040E+00  2.195339628830E-01  2.038986300522E+00
    20    20     8   -5.709634167543E+00 -4.152748148400E-02 -4.158391816564E+00
    21    21     8    5.762655071262E+00 -1.367306939200E-01  1.121781988904E+00
    22    22     8    5.671639874832E+00 -1.116596110530E-01 -5.077993000752E+00
    23    23     8    5.679468972397E+00 -1.914175488390E-01 -1.971958954705E+00
    24    24     8    5.697139516760E+00  4.403953312700E-02  4.202321280370E+00
    25    25     1   -6.033600945527E+00 -7.659310170700E-01 -1.223127380697E+00
    26    26     1   -5.303344539689E+00  9.317367782410E-01  4.998220779134E+00
    27    27     1   -6.551470363306E+00  4.583731410510E-01  1.827977208937E+00
    28    28     1   -4.811075263787E+00 -3.334051305570E-01 -4.342236896993E+00
    29    29     1    5.969581508484E+00  7.808386490070E-01  1.328142970834E+00
    30    30     1    5.659971375070E+00 -1.039781571904E+00 -4.816604332565E+00
    31    31     1    6.591071719188E+00 -3.920004360150E-01 -1.735494646772E+00
    32    32     1    4.834022388452E+00  4.616407816120E-01  4.362106566547E+00
    33    33     8   -3.673803737654E+00  1.475943740638E+00 -2.902494918300E+00
    34    34     8   -7.684763652611E+00 -1.269798302134E+00  3.261997899643E+00
    35    35     8   -3.392857972012E+00 -1.197591192027E+00  3.584967862607E+00
    36    36     8   -7.974322227022E+00  1.338725801830E+00 -2.606365387507E+00
    37    37     8   -6.901902441547E+00 -2.273353050114E+00 -5.682787298233E+00
    38    38     8   -4.401399303503E+00  2.441335938583E+00  4.940943562040E-01
    39    39     8   -4.224118475711E+00 -1.862452655771E+00  2.409137580510E-01
    40    40     8   -7.105598657343E+00  2.026582039836E+00 -5.999990266501E+00
    41    41     8    3.672395507421E+00 -1.570314080620E+00  2.940320705491E+00
    42    42     8    7.677909487672E+00  1.334178628217E+00 -3.256641326028E+00
    43    43     8    3.371701714312E+00  1.020345607305E+00 -3.714320159183E+00
    44    44     8    7.972113113726E+00 -1.378701212334E+00  2.670658757963E+00
    45    45     8    6.852954848454E+00  2.271480349689E+00  5.701501976537E+00
    46    46     8    4.435184113508E+00 -2.438967822476E+00 -4.525584204730E-01
    47    47     8    4.253356865182E+00  1.848999389995E+00 -1.346609883780E-01
    48    48     8    7.150307785905E+00 -2.021960591056E+00  6.043807232600E+00
    49    49     8   -5.636094512937E+00  2.983113711042E+00 -1.290176324489E+00
    50    50     8   -5.772035186358E+00 -2.802049821229E+00  4.901689285756E+00
    51    51     8   -5.309748980551E+00 -2.719143391708E+00  2.006128474715E+00
    52    52     8   -6.081283702403E+00  2.884850047791E+00 -4.199641791106E+00
    53    53     8   -8.509103605378E+00 -3.920706240440E-01  5.153303932522E+00
    54    54     8   -2.829507939439E+00  5.258676502190E-01 -1.054777969529E+00
    55    55     8   -2.788628992012E+00  1.236500338810E-01  1.885647393679E+00
    56    56     8   -8.572890700049E+00  9.300505889300E-02 -4.365326687935E+00
    57    57     8    5.676114455253E+00 -2.978181335403E+00  1.328372875746E+00
    58    58     8    5.666127185379E+00  2.760018523353E+00 -4.911647719044E+00
    59    59     8    5.110002294824E+00  2.696557930313E+00 -2.024722519340E+00
    60    60     8    6.066116796428E+00 -2.879033958330E+00  4.279440192268E+00
    61    61     8    8.519159325551E+00  4.590491326570E-01 -5.143710597889E+00
    62    62     8    2.858041560515E+00 -5.419263866820E-01  1.120985062971E+00
    63    63     8    2.830606930567E+00 -6.233817907100E-02 -1.834827165765E+00
    64    64     8    8.577773314446E+00 -7.713948498300E-02  4.386628766366E+00
    65    65     6   -2.708257438247E+00  1.040035135138E+00 -2.206169958958E+00
    66    66     6   -8.643824287317E+00 -8.673749248040E-01  3.986155885366E+00
    67    67     6   -2.514188337385E+00 -6.625219337410E-01  2.846219499301E+00
    68    68     6   -8.848165407676E+00  8.361642672690E-01 -3.372765121658E+00
    69    69     6   -6.437386707132E+00 -3.114253091302E+00  5.936819698127E+00
    70    70     6   -4.927596846147E+00  3.291511905025E+00 -2.823117766560E-01
    71    71     6   -4.704090474823E+00 -2.834691756634E+00  8.992025552750E-01
    72    72     6   -6.663975939056E+00  3.000963705393E+00 -5.319686800458E+00
    73    73     6    2.717747964962E+00 -1.093346031446E+00  2.254134781081E+00
    74    74     6    8.644414844406E+00  9.278639321990E-01 -3.973899670907E+00
    75    75     6    2.516210046326E+00  6.114427290400E-01 -2.862311163521E+00
    76    76     6    8.848759303390E+00 -8.447286689250E-01  3.409261267728E+00
    77    77     6    6.356134044528E+00  3.098258056740E+00 -5.923996924032E+00
    78    78     6    4.965113577398E+00 -3.289337190963E+00  3.241832393330E-01
    79    79     6    4.624291028099E+00  2.820134642926E+00 -8.578436763600E-01
    80    80     6    6.684939259685E+00 -2.997774221035E+00  5.379096507567E+00
    81    81     6   -1.348284137065E+00  1.122894303440E+00 -2.747664751849E+00
    82    82     6   -1.000810798339E+01 -9.434169319380E-01  3.461770327976E+00
    83    83     6   -1.104292214297E+00 -9.717432096910E-01  3.066060202349E+00
    84    84     6   -1.026235379137E+01  1.128035739410E+00 -3.136537762762E+00
    85    85     6    4.555686902567E+00  6.645344491683E+00 -5.386335041000E-02
    86    86     6   -4.715641464195E+00  4.717985865912E+00 -4.317244834700E-02
    87    87     6   -4.560581142696E+00 -4.192329074012E+00  3.672425855030E-01
    88    88     6    4.707723646213E+00 -7.185675730610E+00  3.497325222490E-01
    89    89     6    1.354154672181E+00 -1.181876184598E+00  2.777955324810E+00
    90    90     6    1.000717783217E+01  9.859029442010E-01 -3.439277171316E+00
    91    91     6    1.108266756274E+00  9.278867725280E-01 -3.051427434580E+00
    92    92     6    1.026184902479E+01 -1.123027717937E+00  3.167128910982E+00
    93    93     6   -4.635499346745E+00 -6.660169507268E+00  8.380612236400E-02
    94    94     6    4.753375738424E+00 -4.715679747112E+00  8.753644058300E-02
    95    95     6    4.493111495085E+00  4.178355723757E+00 -3.314184748550E-01
    96    96     6   -4.675316570864E+00  7.188733873606E+00 -2.963623864090E-01
    97    97     6   -8.973947684050E-01  1.736428419870E+00 -3.878792075830E+00
    98    98     6    7.239826391150E-01  9.649702933532E+00 -3.900240719128E+00
    99    99     6   -5.219599706680E-01 -1.777445515603E+00  3.999559534236E+00
   100   100     6    6.745351588060E-01 -9.751411910802E+00  4.082195335430E+00
   101   101     6    3.953817607075E+00  6.002525482177E+00  9.872486032560E-01
   102   102     6   -4.032983136200E+00  5.349502829705E+00  9.542715631330E-01
   103   103     6   -3.922893791308E+00 -4.624954371103E+00 -7.581083857280E-01
   104   104     6    4.065942635104E+00 -6.751238421179E+00 -7.726657509820E-01
   105   105     6    8.701420011090E-01 -1.901340616036E+00  3.832278294458E+00
   106   106     6   -7.213069518990E-01 -9.636792528852E+00  3.936274267274E+00
   107   107     6    4.967301416720E-01  1.643327591888E+00 -4.044037629969E+00
   108   108     6   -6.733790303330E-01  9.742398663478E+00 -4.041079136039E+00
   109   109     6   -3.962257761223E+00 -6.022730875817E+00 -9.169003715070E-01
   110   110     6    4.087539175296E+00 -5.351305831123E+00 -9.186716845330E-01
   111   111     6    3.923503821610E+00  4.603827257142E+00  8.332578672550E-01
   112   112     6   -4.013127043106E+00  6.749912249397E+00  8.125662785600E-01
   113   113     1   -1.560129597212E+00  2.257211067513E+00 -4.554274895511E+00
   114   114     1   -9.819606728387E+00 -2.041726828994E+00  1.630435398188E+00
   115   115     1   -1.092240129340E+00 -2.275178105922E+00  4.769665487180E+00
   116   116     1   -1.029543273007E+01  2.191130167288E+00 -1.275166876322E+00
   117   117     1    3.543454698994E+00  6.535332283243E+00  1.832834573673E+00
   118   118     1   -3.554978252528E+00  4.806910375031E+00  1.757119673729E+00
   119   119     1   -3.429802702106E+00 -3.943861564831E+00 -1.436570751471E+00
   120   120     1    3.582850817435E+00 -7.432376010823E+00 -1.458227324248E+00
   121   121     1    1.501151904746E+00 -2.526970270879E+00  4.445547662696E+00
   122   122     1    9.826617607539E+00  2.047565444620E+00 -1.585273246348E+00
   123   123     1    1.045359981443E+00  2.084308138242E+00 -4.861985989092E+00
   124   124     1   -1.237268866529E+00  9.321678564591E+00 -4.861017109394E+00
   125   125     1   -3.504485056267E+00 -6.560403876470E+00 -1.734580383253E+00
   126   126     1    3.624556279472E+00 -4.812144458260E+00 -1.732475115903E+00
   127   127     1    3.486484553137E+00  3.917441728574E+00  1.544236886790E+00
   128   128     1   -3.516130942979E+00  7.427619982463E+00  1.491643815522E+00
   129   129    16    2.848734290815E+00 -2.606787929580E-01  6.134836245788E+00
   130   130     8    1.363452400541E+00 -4.188607131010E-01 -5.918203639765E+00
   131   131     8    3.065529897186E+00  9.025803844970E-01  5.102906282563E+00

 NUMBER OF SYMMETRY OPERATORS         :    1
 *******************************************************************************
 LATTICE PARAMETERS (ANGSTROMS AND DEGREES) - BOHR = 0.5291772083 ANGSTROM
 PRIMITIVE CELL - CENTRING CODE 6/0 VOLUME=  3210.474515 - DENSITY  0.993 g/cm^3
         A              B              C           ALPHA      BETA       GAMMA 
    17.48966232    17.45402226    17.01007554    97.459598  97.534987 138.344389
 *******************************************************************************
 ATOMS IN THE ASYMMETRIC UNIT  131 - ATOMS IN THE UNIT CELL:  131
     ATOM              X/A                 Y/B                 Z/C    
 *******************************************************************************
   1 T  21 SC   -1.573437578276E-01 -4.726894565137E-01 -1.963146911737E-01
   2 T  21 SC    2.228490835984E-01  3.842320212785E-02 -3.035061303950E-01
   3 T  21 SC   -4.759264773595E-01  2.242547709679E-01 -3.207965703115E-01
   4 T  21 SC    4.550358235977E-02 -1.531911382668E-01 -1.783670814226E-01
   5 T  21 SC    1.621343315188E-01  4.775534826370E-01  1.956449898931E-01
   6 T  21 SC   -2.212549972954E-01 -3.654097484273E-02  3.023388498210E-01
   7 T  21 SC    4.773934521319E-01 -2.228555121444E-01  3.219551835679E-01
   8 T  21 SC   -4.020276884290E-02  1.594268016350E-01  1.791841472843E-01
   9 T  16 S    -1.310488609152E-01 -1.490703132765E-01  1.467934197739E-02
  10 T  16 S     3.360009581574E-01 -1.437560319398E-01  4.853360904027E-01
  11 T  16 S     1.404017426296E-01  1.578304727551E-01 -1.111364641960E-02
  12 T  16 S    -3.328755947269E-01  1.448238993520E-01 -4.834254501424E-01
  13 T  16 S     1.425895964634E-01  1.247848720408E-01  4.749257524726E-01
  14 T  16 S     1.546056339833E-01 -3.315204252988E-01  2.174428584895E-02
  15 T  16 S    -1.437237768469E-01 -1.318529456914E-01 -4.818006350358E-01
  16 T  16 S    -1.495001653883E-01  3.370980674450E-01 -2.070915617660E-02
  17 T   8 O    -8.326306215013E-02 -3.385020130174E-01 -2.510046133900E-01
  18 T   8 O     4.119294608987E-01  1.688204657541E-01 -2.484779562094E-01
  19 T   8 O     1.690630692903E-01 -8.462008759525E-02 -2.422759656079E-01
  20 T   8 O    -3.411448260746E-01  4.129597623166E-01 -2.573017079779E-01
  21 T   8 O     8.900931641850E-02  3.446097625202E-01  2.515184232589E-01
  22 T   8 O    -4.088335300135E-01 -1.588904933433E-01  2.481862942545E-01
  23 T   8 O    -1.624036265480E-01  9.164731850323E-02  2.451651752889E-01
  24 T   8 O     3.447797630218E-01 -4.099702298151E-01  2.568582323100E-01
  25 T   1 H    -1.370676713374E-01 -3.653323629292E-01 -3.039660804941E-01
  26 T   1 H     4.387681137758E-01  1.692623165908E-01 -1.950888394687E-01
  27 T   1 H     1.618335914637E-01 -1.415539219433E-01 -2.722198521055E-01
  28 T   1 H    -3.680272704756E-01  4.376096805066E-01 -2.301939264905E-01
  29 T   1 H     1.461203345326E-01  3.709777600947E-01  3.017773704571E-01
  30 T   1 H    -4.286094728753E-01 -1.389628401578E-01  2.062117795419E-01
  31 T   1 H    -1.514415662391E-01  1.507968320401E-01  2.769611276408E-01
  32 T   1 H     3.752821231713E-01 -4.349108907654E-01  2.369504335461E-01
  33 T   8 O    -1.717020475748E-01 -3.950006472878E-01 -9.843193086889E-02
  34 T   8 O     2.003197245887E-01 -7.718229403311E-02 -3.999987652041E-01
  35 T   8 O     2.330231441306E-01  1.382999277244E-01 -2.049285552876E-01
  36 T   8 O    -1.574540388556E-01  4.389730983669E-01 -2.967534272661E-01
  37 T   8 O     4.371012767975E-01  2.360418491899E-01 -4.104035827530E-01
  38 T   8 O     1.434444026938E-01 -1.528152268019E-01 -8.760623798147E-02
  39 T   8 O    -6.597124886180E-02 -1.682496604484E-01 -2.719950950931E-01
  40 T   8 O    -3.995706316853E-01  2.043535800369E-01 -2.274028922310E-01
  41 T   8 O     1.705961573116E-01  3.979233099206E-01  9.415479671737E-02
  42 T   8 O    -1.970642746334E-01  7.735415245668E-02  4.025693177912E-01
  43 T   8 O    -2.512405459468E-01 -1.497729905299E-01  1.960554988412E-01
  44 T   8 O     1.608683609152E-01 -4.339172051358E-01  2.948725470496E-01
  45 T   8 O    -4.357180935594E-01 -2.366954886770E-01  4.081333889777E-01
  46 T   8 O    -1.399702050422E-01  1.576542604595E-01  8.922461291273E-02
  47 T   8 O     7.395369742976E-02  1.780916052391E-01  2.727073723563E-01
  48 T   8 O     4.033364417872E-01 -1.988471524135E-01  2.296103445224E-01
  49 T   8 O     2.266881434696E-02 -3.506997714283E-01 -1.186937269727E-01
  50 T   8 O     2.664809932347E-01  1.383190524983E-01 -3.828711237283E-01
  51 T   8 O     3.751328195147E-02 -7.451191625847E-02 -3.586847804038E-01
  52 T   8 O    -2.161305291032E-01  3.951792611723E-01 -1.431620841631E-01
  53 T   8 O     3.904089026599E-01  3.939841718836E-02 -3.975072634145E-01
  54 T   8 O    -6.409164208916E-02 -2.095051207438E-01 -1.030322383904E-01
  55 T   8 O     1.548647429779E-01  2.893429885398E-02 -1.189942338375E-01
  56 T   8 O    -3.542445788722E-01  2.700137247837E-01 -3.792748970276E-01
  57 T   8 O    -1.934545646855E-02  3.555466366703E-01  1.207051430775E-01
  58 T   8 O    -2.692173380278E-01 -1.438233167036E-01  3.762590265351E-01
  59 T   8 O    -4.016710783998E-02  6.418347193758E-02  3.487469442014E-01
  60 T   8 O     2.227947255310E-01 -3.894155972545E-01  1.427490250697E-01
  61 T   8 O    -3.866843729477E-01 -3.813720817327E-02  4.009499437745E-01
  62 T   8 O     6.873666837149E-02  2.160878519440E-01  1.035941187354E-01
  63 T   8 O    -1.480456189328E-01 -2.294649585133E-02  1.236130229104E-01
  64 T   8 O     3.566601284573E-01 -2.680714434568E-01  3.802033293903E-01
  65 T   6 C    -1.340370691728E-01 -2.965770430332E-01 -7.471102527982E-02
  66 T   6 C     2.754884203322E-01 -6.089720801816E-02 -4.248378573377E-01
  67 T   6 C     1.978251786592E-01  1.179144955829E-01 -1.417954940329E-01
  68 T   6 C    -2.419360329832E-01  3.383271679551E-01 -3.583116401464E-01
  69 T   6 C     3.355005152494E-01  1.921456503774E-01 -4.264938674905E-01
  70 T   6 C     1.179088464052E-01 -2.380258117824E-01 -7.318591822946E-02
  71 T   6 C    -5.613604038923E-02 -1.370415834097E-01 -3.368467033262E-01
  72 T   6 C    -3.016324019624E-01  2.793014588203E-01 -1.640865398776E-01
  73 T   6 C     1.355609424374E-01  3.008248606683E-01  7.275620041076E-02
  74 T   6 C    -2.718427004898E-01  6.195092259953E-02  4.275677076255E-01
  75 T   6 C    -2.013637216597E-01 -1.191556827714E-01  1.396025966918E-01
  76 T   6 C     2.444967333976E-01 -3.353662473606E-01  3.579577830231E-01
  77 T   6 C    -3.352388850395E-01 -1.947090807974E-01  4.221484576056E-01
  78 T   6 C    -1.144130728382E-01  2.430564492066E-01  7.496246838918E-02
  79 T   6 C     5.875825943805E-02  1.368423246354E-01  3.326322609684E-01
  80 T   6 C     3.065703543104E-01 -2.735876816764E-01  1.651696744979E-01
  81 T   6 C    -1.728443760647E-01 -2.801295547537E-01 -1.025927695192E-02
  82 T   6 C     2.288249316191E-01 -1.634056758810E-01 -4.892437571670E-01
  83 T   6 C     2.030851308459E-01  1.976435182906E-01 -9.258372391312E-02
  84 T   6 C    -2.112643231067E-01  2.951414348376E-01 -4.084621710647E-01
  85 T   6 C     2.915463542302E-01  2.011314413589E-01 -4.994707607547E-01
  86 T   6 C     2.000324054852E-01 -2.084567991672E-01  3.807944351917E-05
  87 T   6 C    -1.585023741216E-01 -1.744690507763E-01 -3.911259223279E-01
  88 T   6 C    -2.838481168621E-01  2.311661659463E-01 -1.106312449462E-01
  89 T   6 C     1.726938000024E-01  2.827898741052E-01  7.888178921538E-03
  90 T   6 C    -2.251481335314E-01  1.652050776597E-01  4.911018874414E-01
  91 T   6 C    -2.038322921416E-01 -1.963183319333E-01  9.080273129256E-02
  92 T   6 C     2.139455946020E-01 -2.926957319878E-01  4.086652701462E-01
  93 T   6 C    -2.898545287243E-01 -2.022512186167E-01  4.952430594864E-01
  94 T   6 C    -1.963301126429E-01  2.136979414726E-01  1.754219489018E-03
  95 T   6 C     1.607150684778E-01  1.743684049516E-01  3.874882920446E-01
  96 T   6 C     2.883037588905E-01 -2.254340253203E-01  1.122196077267E-01
  97 T   6 C    -2.365191646029E-01 -3.509549161252E-01  3.723596405874E-02
  98 T   6 C     1.109511026913E-01 -2.758682527841E-01  4.632722683759E-01
  99 T   6 C     2.432626439274E-01  2.980176362612E-01 -1.024982807423E-01
 100 T   6 C    -9.962707339538E-02  3.521806409623E-01 -4.052995842255E-01
 101 T   6 C     3.465660809943E-01  2.580218792486E-01  4.449719956012E-01
 102 T   6 C     3.086165465080E-01 -9.754801841675E-02  5.882756653744E-02
 103 T   6 C    -2.675461895993E-01 -2.372803801487E-01 -3.820247224319E-01
 104 T   6 C    -3.555949630938E-01  1.127025705046E-01 -1.199738333696E-01
 105 T   6 C     2.255045612814E-01  3.458950838012E-01 -4.582529768137E-02
 106 T   6 C    -1.074819003685E-01  2.788980497446E-01 -4.625735989009E-01
 107 T   6 C    -2.527580946148E-01 -3.028037156956E-01  9.537539919921E-02
 108 T   6 C     1.025402632528E-01 -3.488229798162E-01  4.049510874533E-01
 109 T   6 C    -3.418006239318E-01 -2.527400151196E-01 -4.462476529686E-01
 110 T   6 C    -3.057862176144E-01  1.028227172678E-01 -5.646757199867E-02
 111 T   6 C     2.726649325942E-01  2.433478652875E-01  3.811126716857E-01
 112 T   6 C     3.587908719792E-01 -1.071578729863E-01  1.222776115745E-01
 113 T   1 H    -2.685262501595E-01 -4.342790305663E-01  3.084254913799E-02
 114 T   1 H     3.334020892032E-02 -3.033625358855E-01  4.699942816032E-01
 115 T   1 H     2.828795509841E-01  3.345643416022E-01 -1.501779006432E-01
 116 T   1 H    -1.478252563673E-02  4.443540180722E-01 -3.623253030882E-01
 117 T   1 H     4.376898097376E-01  3.083922693855E-01  4.504897511767E-01
 118 T   1 H     3.497610278202E-01 -1.212952952782E-02  5.599801669111E-02
 119 T   1 H    -2.917923087032E-01 -2.697282985614E-01 -3.295966579767E-01
 120 T   1 H    -4.410998377902E-01  3.569579921342E-02 -1.720415736081E-01
 121 T   1 H     2.478704629829E-01  4.227370327612E-01 -4.553831095684E-02
 122 T   1 H    -2.944375688397E-02  3.073144252903E-01 -4.694172604944E-01
 123 T   1 H    -2.987372966466E-01 -3.441981655121E-01  1.395486802092E-01
 124 T   1 H     1.760366827439E-02 -4.400488844510E-01  3.608994549397E-01
 125 T   1 H    -4.308536721760E-01 -2.987730047047E-01 -4.498621538002E-01
 126 T   1 H    -3.479506593194E-01  1.718226651255E-02 -5.312060700058E-02
 127 T   1 H     2.993411330382E-01  2.808866512790E-01  3.309562340082E-01
 128 T   1 H     4.436347034018E-01 -3.006215003039E-02  1.748131438719E-01
 129 T  16 S     4.845358458968E-01 -3.801826989907E-01  1.160554151482E-01
 130 T   8 O    -4.935006305719E-01 -4.169202173904E-01  4.185659161485E-02
 131 T   8 O     4.528151769393E-01 -4.529818346308E-01  1.776562816944E-01

 TRANSFORMATION MATRIX PRIMITIVE-CRYSTALLOGRAPHIC CELL
  0.0000  1.0000  1.0000  1.0000  0.0000  1.0000  1.0000  1.0000  0.0000

 *******************************************************************************
 CRYSTALLOGRAPHIC CELL (VOLUME=       6420.94903046)
         A              B              C           ALPHA      BETA       GAMMA 
    22.73534167    22.74219736    12.42464178    89.948912  90.201503  91.805841

 COORDINATES IN THE CRYSTALLOGRAPHIC CELL
     ATOM              X/A                 Y/B                 Z/C    
 *******************************************************************************
   1 T  21 SC   -2.558301949299E-01  5.951550375620E-02 -2.168592615838E-01
   2 T  21 SC   -2.439660059328E-01 -5.954012446224E-02  2.823892080606E-01
   3 T  21 SC   -3.103076609921E-01 -1.048890931945E-02 -4.654375680401E-01
   4 T  21 SC   -1.885309010246E-01  1.016381960196E-02  3.533976275781E-02
   5 T  21 SC    2.555320705057E-01 -5.988708061258E-02  2.220214121314E-01
   6 T  21 SC    2.435264361368E-01  5.881241368417E-02 -2.800674109796E-01
   7 T  21 SC    3.108531096458E-01  1.110207392213E-02  4.662913782097E-01
   8 T  21 SC    1.894068588811E-01 -1.022271159681E-02 -2.998005724610E-02
   9 T  16 S    -1.671055191956E-03  1.635039716935E-02 -1.473992580845E-01
  10 T  16 S     2.789550152693E-03  4.825465402500E-01 -1.465455820925E-01
  11 T  16 S     3.157541852949E-03 -1.427118827255E-02  1.546729309022E-01
  12 T  16 S    -2.862978031773E-03 -4.805624721107E-01  1.476868773837E-01
  13 T  16 S     2.285605140250E-01  2.463652384476E-01 -1.037756419842E-01
  14 T  16 S    -2.321908867166E-01  2.539351725655E-01 -9.932953858225E-02
  15 T  16 S    -2.349649019402E-01 -2.468357330956E-01  1.031119562487E-01
  16 T  16 S     2.329445383284E-01 -2.536536945050E-01  1.041535291166E-01
  17 T   8 O    -2.531217821286E-01  2.117168738668E-03 -8.538023088880E-02
  18 T   8 O    -2.457934756770E-01 -2.684480532410E-03  4.146139414311E-01
  19 T   8 O    -2.479795612467E-01  5.703595638833E-03  1.633594736515E-01
  20 T   8 O    -2.515985597933E-01 -5.703148184549E-03 -3.354416778900E-01
  21 T   8 O     2.535594346803E-01 -2.041011421386E-03  9.105032783989E-02
  22 T   8 O     2.490646654624E-01 -8.783712078073E-04 -4.079551588057E-01
  23 T   8 O     2.496080601701E-01 -4.442884881165E-03 -1.579607416669E-01
  24 T   8 O     2.510541197366E-01  5.804112573419E-03  3.389756504483E-01
  25 T   1 H    -2.661153860430E-01 -3.785069445114E-02 -9.921697688624E-02
  26 T   1 H    -2.322973183268E-01  3.720847885814E-02  4.015596349176E-01
  27 T   1 H    -2.878036827562E-01  1.558383065075E-02  1.462497608129E-01
  28 T   1 H    -2.122784877541E-01 -1.791543873635E-02 -3.501118317392E-01
  29 T   1 H     2.633173980096E-01  3.845997244751E-02  1.076603620851E-01
  30 T   1 H     2.479292061297E-01 -4.171742658776E-02 -3.868920462875E-01
  31 T   1 H     2.895997629600E-01 -1.263863531922E-02 -1.388029309199E-01
  32 T   1 H     2.133787098047E-01  2.357172374138E-02  3.517103994299E-01
  33 T   8 O    -1.608652652909E-01  6.243333442206E-02 -2.341353819969E-01
  34 T   8 O    -3.387503919129E-01 -6.124837329115E-02  2.615680978798E-01
  35 T   8 O    -1.498258858469E-01 -5.510266944067E-02  2.881258135713E-01
  36 T   8 O    -3.501631450218E-01  5.340971775570E-02 -2.108637566113E-01
  37 T   8 O    -3.057315051803E-01 -1.046720775728E-01 -4.582266456298E-01
  38 T   8 O    -1.919329337386E-01  1.043266957571E-01  3.911770693672E-02
  39 T   8 O    -1.871367533398E-01 -8.485834175326E-02  1.888709289146E-02
  40 T   8 O    -3.117393402544E-01  8.433644802340E-02 -4.839070797087E-01
  41 T   8 O     1.607409746632E-01 -6.658617794578E-02  2.371823352574E-01
  42 T   8 O     3.384938724407E-01  6.407544535056E-02 -2.611397199840E-01
  43 T   8 O     1.487615271291E-01  4.729397171212E-02 -2.985345176590E-01
  44 T   8 O     3.500434904994E-01 -5.517094344971E-02  2.160393043649E-01
  45 T   8 O     3.035779969301E-01  1.045553920477E-01  4.597265143929E-01
  46 T   8 O     1.934245392072E-01 -1.041999262945E-01 -3.577027874771E-02
  47 T   8 O     1.884226400828E-01  8.428473227350E-02 -1.033103484374E-02
  48 T   8 O     3.137133751609E-01 -8.410303063846E-02  4.874394724256E-01
  49 T   8 O    -2.460311563740E-01  1.273374294013E-01 -1.046686150543E-01
  50 T   8 O    -2.555165322324E-01 -1.273545914960E-01  3.938355847306E-01
  51 T   8 O    -2.353549893069E-01 -1.233297910969E-01  1.608430730484E-01
  52 T   8 O    -2.659261469438E-01  1.227640627807E-01 -3.388945918839E-01
  53 T   8 O    -3.742588744430E-01 -2.324838897144E-02  4.136572916314E-01
  54 T   8 O    -1.242228585225E-01  2.119062013212E-02 -8.528226222128E-02
  55 T   8 O    -1.224623389807E-01  3.468105143170E-03  1.513966378347E-01
  56 T   8 O    -3.775082966859E-01 -1.766600341753E-03 -3.524779785305E-01
  57 T   8 O     2.477986181081E-01 -1.270934750307E-01  1.077480185621E-01
  58 T   8 O     2.508265239296E-01  1.254325026054E-01 -3.946498406332E-01
  59 T   8 O     2.265487619895E-01  1.221981822119E-01 -1.623652900519E-01
  60 T   8 O     2.652693511421E-01 -1.225203260724E-01  3.453150516034E-01
  61 T   8 O     3.747485542744E-01  2.620138950003E-02 -4.128857624477E-01
  62 T   8 O     1.254726511540E-01 -2.187853241852E-02  9.061520079001E-02
  63 T   8 O     1.243560729960E-01 -7.430500855533E-04 -1.473025688473E-01
  64 T   8 O     3.777358787381E-01  2.467450652217E-03  3.541926778051E-01
  65 T   6 C    -1.186254995701E-01  4.391447429028E-02 -1.779515434631E-01
  66 T   6 C    -3.806117428441E-01 -4.422611449366E-02  3.197145348259E-01
  67 T   6 C    -1.108530885546E-01 -3.094240547828E-02  2.287675841375E-01
  68 T   6 C    -3.890242196041E-01  3.071257945767E-02 -2.726486124409E-01
  69 T   6 C    -2.849243661812E-01 -1.415695013093E-01  4.770700165587E-01
  70 T   6 C    -2.145602882085E-01  1.413743699791E-01 -2.346552357389E-02
  71 T   6 C    -2.088761231734E-01 -1.279705801528E-01  7.183453976362E-02
  72 T   6 C    -2.915763395474E-01  1.274897996699E-01 -4.291222016322E-01
  73 T   6 C     1.190100593208E-01 -4.625385891007E-02  1.818148013475E-01
  74 T   6 C     3.806806653574E-01  4.688704226808E-02 -3.187297427579E-01
  75 T   6 C     1.109053177901E-01  2.869727890171E-02 -2.300610005615E-01
  76 T   6 C     3.890474011325E-01 -3.108961810934E-02  2.755863515069E-01
  77 T   6 C     2.813391309239E-01  1.408093266817E-01 -4.760482117212E-01
  78 T   6 C     2.162159952170E-01 -1.412535268279E-01  2.684045398961E-02
  79 T   6 C     2.053581630828E-01  1.272740978855E-01 -6.851583844747E-02
  80 T   6 C     2.925058192555E-01 -1.273361447576E-01  4.339064990681E-01
  81 T   6 C    -5.877222782046E-02  4.851295086854E-02 -2.213573269332E-01
  82 T   6 C    -4.407371823335E-01 -4.850657483345E-02  2.773315064526E-01
  83 T   6 C    -4.901266823421E-02 -4.357105567891E-02  2.466561865248E-01
  84 T   6 C    -4.510282065602E-01  4.256603549550E-02 -2.538303586022E-01
  85 T   6 C     2.050571631869E-01  2.954720760583E-01 -3.925721828083E-03
  86 T   6 C    -2.042255626044E-01  2.042636420479E-01 -4.231236562756E-03
  87 T   6 C    -2.035462994913E-01 -1.875796228366E-01  2.907724871505E-02
  88 T   6 C     2.021915189311E-01 -3.128227638773E-01  2.897464701515E-02
  89 T   6 C     5.899212651215E-02 -5.110394759061E-02  2.237977475930E-01
  90 T   6 C     4.407275493162E-01  5.037433812517E-02 -2.755224716566E-01
  91 T   6 C     4.915834575043E-02  4.164438554213E-02 -2.454766776837E-01
  92 T   6 C     4.510119717781E-01 -4.234670163198E-02  2.562922962340E-01
  93 T   6 C    -2.085768152030E-01 -2.961801253106E-01  6.325596586323E-03
  94 T   6 C     2.058911368022E-01 -2.041369173132E-01  7.806804670337E-03
  95 T   6 C     2.005708142592E-01  1.869174777854E-01 -2.620240930763E-02
  96 T   6 C    -2.007590882421E-01  3.129786959688E-01 -2.467493707822E-02
  97 T   6 C    -3.859989373177E-02  7.583585779051E-02 -3.123550223934E-01
  98 T   6 C     3.822645645025E-02  4.250458119256E-01 -3.140947092343E-01
  99 T   6 C    -2.387164420427E-02 -7.862663653807E-02  3.218892804654E-01
 100 T   6 C     2.325406506611E-02 -4.285536492916E-01  3.289265758962E-01
 101 T   6 C     1.782138969277E-01  2.667580986735E-01  7.980798232086E-02
 102 T   6 C    -1.736684991936E-01  2.324960657311E-01  7.612048077689E-02
 103 T   6 C    -1.758794564907E-01 -2.061452659412E-01 -6.140092365801E-02
 104 T   6 C     1.741618501143E-01 -2.941356834840E-01 -6.145927960977E-02
 105 T   6 C     3.728261241924E-02 -8.310791010061E-02  3.086124713820E-01
 106 T   6 C    -3.809682439389E-02 -4.244767745070E-01  3.169948741385E-01
 107 T   6 C     2.266488905920E-02  7.271051014000E-02 -3.254686047548E-01
 108 T   6 C    -2.320607780790E-02  4.281571652612E-01 -3.256169020083E-01
 109 T   6 C    -1.785935220782E-01 -2.676541308904E-01 -7.414649304137E-02
 110 T   6 C     1.760706814417E-01 -2.325382534404E-01 -7.324796417398E-02
 111 T   6 C     1.758978021895E-01  2.052148694962E-01  6.745006309799E-02
 112 T   6 C    -1.718355666955E-01  2.941131782700E-01  6.467769370917E-02
 113 T   1 H    -6.745511563444E-02  9.829766477243E-02 -3.668239149319E-01
 114 T   1 H    -4.333542316013E-01 -9.665148679551E-02  1.299916957158E-01
 115 T   1 H    -4.924655501259E-02 -1.009313456306E-01  3.838108966148E-01
 116 T   1 H    -4.515943796896E-01  8.926907660144E-02 -1.040516022382E-01
 117 T   1 H     1.605961054123E-01  2.898936457644E-01  1.477961639732E-01
 118 T   1 H    -1.529462703284E-01  2.089442870196E-01  1.408167408006E-01
 119 T   1 H    -1.537663239174E-01 -1.758303340592E-01 -1.159619746440E-01
 120 T   1 H     1.523770316978E-01 -3.244186053059E-01 -1.166812324843E-01
 121 T   1 H     6.466412941076E-02 -1.102024403676E-01  3.580729033505E-01
 122 T   1 H     4.336704608399E-01  9.691227866569E-02 -1.263560355497E-01
 123 T   1 H     4.704390567185E-02  9.250477453731E-02 -3.912420711839E-01
 124 T   1 H    -4.837654889281E-02  4.092760038325E-01 -3.916723355582E-01
 125 T   1 H    -1.588907431645E-01 -2.909714106358E-01 -1.398822615402E-01
 126 T   1 H     1.560061594157E-01 -2.091267664163E-01 -1.388238929031E-01
 127 T   1 H     1.562508761245E-01  1.747053578837E-01  1.246357751545E-01
 128 T   1 H    -1.494418547801E-01  3.242549986520E-01  1.193797047498E-01
 129 T  16 S     1.256684351303E-01 -9.613019982166E-03  4.941488658790E-01
 130 T   8 O     5.921850239818E-02 -1.736191078333E-02 -4.761387197886E-01
 131 T   8 O     1.359296350621E-01  4.172664663226E-02  4.110885303071E-01

 T = ATOM BELONGING TO THE ASYMMETRIC UNIT
 *******************************************************************************
 * GEOMETRY EDITING - INPUT COORDINATES ARE GIVEN IN ANGSTROM         
 *******************************************************************************
 INFORMATION **** NEW DEFAULT **** FINALRUN 4 FOR GEOMETRY OPTIMIZATIONS
 INFORMATION **** NEW DEFAULT **** OPTGEOM OPTIMIZES BOTH ATOMIC COORDINATES AND CELL PARAMETERS
 INFORMATION **** NEW DEFAULT **** TOL. ON ENERGY TO REDEFINE REF. GEOMETRY: 10**-3
 INFORMATION **** OPTGEOM ****  RESTARTING THE OPTIMISATION
 INFORMATION **** MAXCYCLE ****   MAXIMUM NUMBER OF OPTIMIZATION CYCLES         300

 IMPORTANT INFORMATION:
 THE COORDINATE SYSTEM ADOPTED IN THE OPTIMIZATION IS NOT IN
 GENERAL HOMOGENEOUS UNITS. FOR THIS REASON THE GRADIENT AND 
 HESSIAN MATRIX IN TERMS OF THIS SYSTEM ARE GIVEN WITHOUT
 UNITS. FOR MORE DETAILS SEE THE MANUAL.

 *******************************************************************************
 COMBINED CELL/ATOM OPTIMIZATION CONTROL

 INITIAL TRUST RADIUS         0.50000 MAXIMUM TRUST RADIUS               4.00000
 MAXIMUM GRADIENT COMPONENT   0.00045 MAXIMUM DISPLACEMENT COMPONENT     0.00180
 R.M.S. OF GRADIENT COMPONENT 0.00030 R.M.S. OF DISPLACEMENT COMPONENTS  0.00120
 THRESHOLD ON ENERGY CHANGE 0.100E-06 EXTRAPOLATING POLYNOMIAL ORDER           2
 MAXIMUM ALLOWED NUMBER OF STEPS  300 SORTING OF ENERGY POINTS:               NO
 ANALYTICAL  GRADIENT                 HESSIAN UPDATING                      BFGS
 STEP SIZE NUMERICAL GRADIENT 0.00100
 INITIAL HESSIAN MATRIX: SCHLEGEL MODEL 2
 *******************************************************************************


 GCALCO - MAX INDICES DIRECT LATTICE VECTOR    16    17    11
 NO.OF VECTORS CREATED 6999 STARS 3500 RMAX   330.99655 BOHR

 GEOMETRY FOR WAVE FUNCTION - DIMENSIONALITY OF THE SYSTEM    3
 (NON PERIODIC DIRECTION: LATTICE PARAMETER FORMALLY SET TO 500)
 *******************************************************************************
 LATTICE PARAMETERS (ANGSTROMS AND DEGREES) - BOHR = 0.5291772083 ANGSTROM
 PRIMITIVE CELL - CENTRING CODE 6/0 VOLUME=  3210.474515 - DENSITY  0.993 g/cm^3
         A              B              C           ALPHA      BETA       GAMMA 
    17.48966232    17.45402226    17.01007554    97.459598  97.534987 138.344389
 *******************************************************************************
 ATOMS IN THE ASYMMETRIC UNIT  131 - ATOMS IN THE UNIT CELL:  131
     ATOM              X/A                 Y/B                 Z/C    
 *******************************************************************************
   1 T  21 SC   -1.573437578276E-01 -4.726894565137E-01 -1.963146911737E-01
   2 T  21 SC    2.228490835984E-01  3.842320212785E-02 -3.035061303950E-01
   3 T  21 SC   -4.759264773595E-01  2.242547709679E-01 -3.207965703115E-01
   4 T  21 SC    4.550358235977E-02 -1.531911382668E-01 -1.783670814226E-01
   5 T  21 SC    1.621343315188E-01  4.775534826370E-01  1.956449898931E-01
   6 T  21 SC   -2.212549972954E-01 -3.654097484273E-02  3.023388498210E-01
   7 T  21 SC    4.773934521319E-01 -2.228555121444E-01  3.219551835679E-01
   8 T  21 SC   -4.020276884290E-02  1.594268016350E-01  1.791841472843E-01
   9 T  16 S    -1.310488609152E-01 -1.490703132765E-01  1.467934197739E-02
  10 T  16 S     3.360009581574E-01 -1.437560319398E-01  4.853360904027E-01
  11 T  16 S     1.404017426296E-01  1.578304727551E-01 -1.111364641960E-02
  12 T  16 S    -3.328755947269E-01  1.448238993520E-01 -4.834254501424E-01
  13 T  16 S     1.425895964634E-01  1.247848720408E-01  4.749257524726E-01
  14 T  16 S     1.546056339833E-01 -3.315204252988E-01  2.174428584895E-02
  15 T  16 S    -1.437237768469E-01 -1.318529456914E-01 -4.818006350358E-01
  16 T  16 S    -1.495001653883E-01  3.370980674450E-01 -2.070915617660E-02
  17 T   8 O    -8.326306215013E-02 -3.385020130174E-01 -2.510046133900E-01
  18 T   8 O     4.119294608987E-01  1.688204657541E-01 -2.484779562094E-01
  19 T   8 O     1.690630692903E-01 -8.462008759525E-02 -2.422759656079E-01
  20 T   8 O    -3.411448260746E-01  4.129597623166E-01 -2.573017079779E-01
  21 T   8 O     8.900931641850E-02  3.446097625202E-01  2.515184232589E-01
  22 T   8 O    -4.088335300135E-01 -1.588904933433E-01  2.481862942545E-01
  23 T   8 O    -1.624036265480E-01  9.164731850323E-02  2.451651752889E-01
  24 T   8 O     3.447797630218E-01 -4.099702298151E-01  2.568582323100E-01
  25 T   1 H    -1.370676713374E-01 -3.653323629292E-01 -3.039660804941E-01
  26 T   1 H     4.387681137758E-01  1.692623165908E-01 -1.950888394687E-01
  27 T   1 H     1.618335914637E-01 -1.415539219433E-01 -2.722198521055E-01
  28 T   1 H    -3.680272704756E-01  4.376096805066E-01 -2.301939264905E-01
  29 T   1 H     1.461203345326E-01  3.709777600947E-01  3.017773704571E-01
  30 T   1 H    -4.286094728753E-01 -1.389628401578E-01  2.062117795419E-01
  31 T   1 H    -1.514415662391E-01  1.507968320401E-01  2.769611276408E-01
  32 T   1 H     3.752821231713E-01 -4.349108907654E-01  2.369504335461E-01
  33 T   8 O    -1.717020475748E-01 -3.950006472878E-01 -9.843193086889E-02
  34 T   8 O     2.003197245887E-01 -7.718229403311E-02 -3.999987652041E-01
  35 T   8 O     2.330231441306E-01  1.382999277244E-01 -2.049285552876E-01
  36 T   8 O    -1.574540388556E-01  4.389730983669E-01 -2.967534272661E-01
  37 T   8 O     4.371012767975E-01  2.360418491899E-01 -4.104035827530E-01
  38 T   8 O     1.434444026938E-01 -1.528152268019E-01 -8.760623798147E-02
  39 T   8 O    -6.597124886180E-02 -1.682496604484E-01 -2.719950950931E-01
  40 T   8 O    -3.995706316853E-01  2.043535800369E-01 -2.274028922310E-01
  41 T   8 O     1.705961573116E-01  3.979233099206E-01  9.415479671737E-02
  42 T   8 O    -1.970642746334E-01  7.735415245668E-02  4.025693177912E-01
  43 T   8 O    -2.512405459468E-01 -1.497729905299E-01  1.960554988412E-01
  44 T   8 O     1.608683609152E-01 -4.339172051358E-01  2.948725470496E-01
  45 T   8 O    -4.357180935594E-01 -2.366954886770E-01  4.081333889777E-01
  46 T   8 O    -1.399702050422E-01  1.576542604595E-01  8.922461291273E-02
  47 T   8 O     7.395369742976E-02  1.780916052391E-01  2.727073723563E-01
  48 T   8 O     4.033364417872E-01 -1.988471524135E-01  2.296103445224E-01
  49 T   8 O     2.266881434696E-02 -3.506997714283E-01 -1.186937269727E-01
  50 T   8 O     2.664809932347E-01  1.383190524983E-01 -3.828711237283E-01
  51 T   8 O     3.751328195147E-02 -7.451191625847E-02 -3.586847804038E-01
  52 T   8 O    -2.161305291032E-01  3.951792611723E-01 -1.431620841631E-01
  53 T   8 O     3.904089026599E-01  3.939841718836E-02 -3.975072634145E-01
  54 T   8 O    -6.409164208916E-02 -2.095051207438E-01 -1.030322383904E-01
  55 T   8 O     1.548647429779E-01  2.893429885398E-02 -1.189942338375E-01
  56 T   8 O    -3.542445788722E-01  2.700137247837E-01 -3.792748970276E-01
  57 T   8 O    -1.934545646855E-02  3.555466366703E-01  1.207051430775E-01
  58 T   8 O    -2.692173380278E-01 -1.438233167036E-01  3.762590265351E-01
  59 T   8 O    -4.016710783998E-02  6.418347193758E-02  3.487469442014E-01
  60 T   8 O     2.227947255310E-01 -3.894155972545E-01  1.427490250697E-01
  61 T   8 O    -3.866843729477E-01 -3.813720817327E-02  4.009499437745E-01
  62 T   8 O     6.873666837149E-02  2.160878519440E-01  1.035941187354E-01
  63 T   8 O    -1.480456189328E-01 -2.294649585133E-02  1.236130229104E-01
  64 T   8 O     3.566601284573E-01 -2.680714434568E-01  3.802033293903E-01
  65 T   6 C    -1.340370691728E-01 -2.965770430332E-01 -7.471102527982E-02
  66 T   6 C     2.754884203322E-01 -6.089720801816E-02 -4.248378573377E-01
  67 T   6 C     1.978251786592E-01  1.179144955829E-01 -1.417954940329E-01
  68 T   6 C    -2.419360329832E-01  3.383271679551E-01 -3.583116401464E-01
  69 T   6 C     3.355005152494E-01  1.921456503774E-01 -4.264938674905E-01
  70 T   6 C     1.179088464052E-01 -2.380258117824E-01 -7.318591822946E-02
  71 T   6 C    -5.613604038923E-02 -1.370415834097E-01 -3.368467033262E-01
  72 T   6 C    -3.016324019624E-01  2.793014588203E-01 -1.640865398776E-01
  73 T   6 C     1.355609424374E-01  3.008248606683E-01  7.275620041076E-02
  74 T   6 C    -2.718427004898E-01  6.195092259953E-02  4.275677076255E-01
  75 T   6 C    -2.013637216597E-01 -1.191556827714E-01  1.396025966918E-01
  76 T   6 C     2.444967333976E-01 -3.353662473606E-01  3.579577830231E-01
  77 T   6 C    -3.352388850395E-01 -1.947090807974E-01  4.221484576056E-01
  78 T   6 C    -1.144130728382E-01  2.430564492066E-01  7.496246838918E-02
  79 T   6 C     5.875825943805E-02  1.368423246354E-01  3.326322609684E-01
  80 T   6 C     3.065703543104E-01 -2.735876816764E-01  1.651696744979E-01
  81 T   6 C    -1.728443760647E-01 -2.801295547537E-01 -1.025927695192E-02
  82 T   6 C     2.288249316191E-01 -1.634056758810E-01 -4.892437571670E-01
  83 T   6 C     2.030851308459E-01  1.976435182906E-01 -9.258372391312E-02
  84 T   6 C    -2.112643231067E-01  2.951414348376E-01 -4.084621710647E-01
  85 T   6 C     2.915463542302E-01  2.011314413589E-01 -4.994707607547E-01
  86 T   6 C     2.000324054852E-01 -2.084567991672E-01  3.807944351914E-05
  87 T   6 C    -1.585023741216E-01 -1.744690507763E-01 -3.911259223279E-01
  88 T   6 C    -2.838481168621E-01  2.311661659463E-01 -1.106312449462E-01
  89 T   6 C     1.726938000024E-01  2.827898741052E-01  7.888178921538E-03
  90 T   6 C    -2.251481335314E-01  1.652050776597E-01  4.911018874414E-01
  91 T   6 C    -2.038322921416E-01 -1.963183319333E-01  9.080273129256E-02
  92 T   6 C     2.139455946020E-01 -2.926957319878E-01  4.086652701462E-01
  93 T   6 C    -2.898545287243E-01 -2.022512186167E-01  4.952430594864E-01
  94 T   6 C    -1.963301126429E-01  2.136979414726E-01  1.754219489018E-03
  95 T   6 C     1.607150684778E-01  1.743684049516E-01  3.874882920446E-01
  96 T   6 C     2.883037588905E-01 -2.254340253203E-01  1.122196077267E-01
  97 T   6 C    -2.365191646029E-01 -3.509549161252E-01  3.723596405874E-02
  98 T   6 C     1.109511026913E-01 -2.758682527841E-01  4.632722683759E-01
  99 T   6 C     2.432626439274E-01  2.980176362612E-01 -1.024982807423E-01
 100 T   6 C    -9.962707339538E-02  3.521806409623E-01 -4.052995842255E-01
 101 T   6 C     3.465660809943E-01  2.580218792486E-01  4.449719956012E-01
 102 T   6 C     3.086165465080E-01 -9.754801841675E-02  5.882756653744E-02
 103 T   6 C    -2.675461895993E-01 -2.372803801487E-01 -3.820247224319E-01
 104 T   6 C    -3.555949630938E-01  1.127025705046E-01 -1.199738333696E-01
 105 T   6 C     2.255045612814E-01  3.458950838012E-01 -4.582529768137E-02
 106 T   6 C    -1.074819003685E-01  2.788980497446E-01 -4.625735989009E-01
 107 T   6 C    -2.527580946148E-01 -3.028037156956E-01  9.537539919921E-02
 108 T   6 C     1.025402632528E-01 -3.488229798162E-01  4.049510874533E-01
 109 T   6 C    -3.418006239318E-01 -2.527400151196E-01 -4.462476529686E-01
 110 T   6 C    -3.057862176144E-01  1.028227172678E-01 -5.646757199867E-02
 111 T   6 C     2.726649325942E-01  2.433478652875E-01  3.811126716857E-01
 112 T   6 C     3.587908719792E-01 -1.071578729863E-01  1.222776115745E-01
 113 T   1 H    -2.685262501595E-01 -4.342790305663E-01  3.084254913799E-02
 114 T   1 H     3.334020892032E-02 -3.033625358855E-01  4.699942816032E-01
 115 T   1 H     2.828795509841E-01  3.345643416022E-01 -1.501779006432E-01
 116 T   1 H    -1.478252563673E-02  4.443540180722E-01 -3.623253030882E-01
 117 T   1 H     4.376898097376E-01  3.083922693855E-01  4.504897511767E-01
 118 T   1 H     3.497610278202E-01 -1.212952952782E-02  5.599801669111E-02
 119 T   1 H    -2.917923087032E-01 -2.697282985614E-01 -3.295966579767E-01
 120 T   1 H    -4.410998377902E-01  3.569579921342E-02 -1.720415736081E-01
 121 T   1 H     2.478704629829E-01  4.227370327612E-01 -4.553831095684E-02
 122 T   1 H    -2.944375688397E-02  3.073144252903E-01 -4.694172604944E-01
 123 T   1 H    -2.987372966466E-01 -3.441981655121E-01  1.395486802092E-01
 124 T   1 H     1.760366827439E-02 -4.400488844510E-01  3.608994549397E-01
 125 T   1 H    -4.308536721760E-01 -2.987730047047E-01 -4.498621538002E-01
 126 T   1 H    -3.479506593194E-01  1.718226651255E-02 -5.312060700058E-02
 127 T   1 H     2.993411330382E-01  2.808866512790E-01  3.309562340082E-01
 128 T   1 H     4.436347034018E-01 -3.006215003039E-02  1.748131438719E-01
 129 T  16 S     4.845358458968E-01 -3.801826989907E-01  1.160554151482E-01
 130 T   8 O    -4.935006305719E-01 -4.169202173904E-01  4.185659161485E-02
 131 T   8 O     4.528151769393E-01 -4.529818346308E-01  1.776562816944E-01

 TRANSFORMATION MATRIX PRIMITIVE-CRYSTALLOGRAPHIC CELL
  0.0000  1.0000  1.0000  1.0000  0.0000  1.0000  1.0000  1.0000  0.0000

 *******************************************************************************
 CRYSTALLOGRAPHIC CELL (VOLUME=       6420.94903046)
         A              B              C           ALPHA      BETA       GAMMA 
    22.73534167    22.74219736    12.42464178    89.948912  90.201503  91.805841

 COORDINATES IN THE CRYSTALLOGRAPHIC CELL
     ATOM              X/A                 Y/B                 Z/C    
 *******************************************************************************
   1 T  21 SC   -2.558301949299E-01  5.951550375620E-02 -2.168592615838E-01
   2 T  21 SC   -2.439660059328E-01 -5.954012446224E-02  2.823892080606E-01
   3 T  21 SC   -3.103076609921E-01 -1.048890931945E-02 -4.654375680401E-01
   4 T  21 SC   -1.885309010246E-01  1.016381960196E-02  3.533976275781E-02
   5 T  21 SC    2.555320705057E-01 -5.988708061258E-02  2.220214121314E-01
   6 T  21 SC    2.435264361368E-01  5.881241368417E-02 -2.800674109796E-01
   7 T  21 SC    3.108531096458E-01  1.110207392213E-02  4.662913782097E-01
   8 T  21 SC    1.894068588811E-01 -1.022271159681E-02 -2.998005724610E-02
   9 T  16 S    -1.671055191956E-03  1.635039716935E-02 -1.473992580845E-01
  10 T  16 S     2.789550152693E-03  4.825465402500E-01 -1.465455820925E-01
  11 T  16 S     3.157541852949E-03 -1.427118827255E-02  1.546729309022E-01
  12 T  16 S    -2.862978031773E-03 -4.805624721107E-01  1.476868773837E-01
  13 T  16 S     2.285605140250E-01  2.463652384476E-01 -1.037756419842E-01
  14 T  16 S    -2.321908867166E-01  2.539351725655E-01 -9.932953858225E-02
  15 T  16 S    -2.349649019402E-01 -2.468357330956E-01  1.031119562487E-01
  16 T  16 S     2.329445383284E-01 -2.536536945050E-01  1.041535291166E-01
  17 T   8 O    -2.531217821286E-01  2.117168738668E-03 -8.538023088880E-02
  18 T   8 O    -2.457934756770E-01 -2.684480532410E-03  4.146139414311E-01
  19 T   8 O    -2.479795612467E-01  5.703595638833E-03  1.633594736515E-01
  20 T   8 O    -2.515985597933E-01 -5.703148184549E-03 -3.354416778900E-01
  21 T   8 O     2.535594346803E-01 -2.041011421386E-03  9.105032783989E-02
  22 T   8 O     2.490646654624E-01 -8.783712078073E-04 -4.079551588057E-01
  23 T   8 O     2.496080601701E-01 -4.442884881165E-03 -1.579607416669E-01
  24 T   8 O     2.510541197366E-01  5.804112573419E-03  3.389756504483E-01
  25 T   1 H    -2.661153860430E-01 -3.785069445114E-02 -9.921697688624E-02
  26 T   1 H    -2.322973183268E-01  3.720847885814E-02  4.015596349176E-01
  27 T   1 H    -2.878036827562E-01  1.558383065075E-02  1.462497608129E-01
  28 T   1 H    -2.122784877541E-01 -1.791543873635E-02 -3.501118317392E-01
  29 T   1 H     2.633173980096E-01  3.845997244751E-02  1.076603620851E-01
  30 T   1 H     2.479292061297E-01 -4.171742658776E-02 -3.868920462875E-01
  31 T   1 H     2.895997629600E-01 -1.263863531922E-02 -1.388029309199E-01
  32 T   1 H     2.133787098047E-01  2.357172374138E-02  3.517103994299E-01
  33 T   8 O    -1.608652652909E-01  6.243333442206E-02 -2.341353819969E-01
  34 T   8 O    -3.387503919129E-01 -6.124837329115E-02  2.615680978798E-01
  35 T   8 O    -1.498258858469E-01 -5.510266944067E-02  2.881258135713E-01
  36 T   8 O    -3.501631450218E-01  5.340971775570E-02 -2.108637566113E-01
  37 T   8 O    -3.057315051803E-01 -1.046720775728E-01 -4.582266456298E-01
  38 T   8 O    -1.919329337386E-01  1.043266957571E-01  3.911770693672E-02
  39 T   8 O    -1.871367533398E-01 -8.485834175326E-02  1.888709289146E-02
  40 T   8 O    -3.117393402544E-01  8.433644802340E-02 -4.839070797087E-01
  41 T   8 O     1.607409746632E-01 -6.658617794578E-02  2.371823352574E-01
  42 T   8 O     3.384938724407E-01  6.407544535056E-02 -2.611397199840E-01
  43 T   8 O     1.487615271291E-01  4.729397171212E-02 -2.985345176590E-01
  44 T   8 O     3.500434904994E-01 -5.517094344971E-02  2.160393043649E-01
  45 T   8 O     3.035779969301E-01  1.045553920477E-01  4.597265143929E-01
  46 T   8 O     1.934245392072E-01 -1.041999262945E-01 -3.577027874771E-02
  47 T   8 O     1.884226400828E-01  8.428473227350E-02 -1.033103484374E-02
  48 T   8 O     3.137133751609E-01 -8.410303063846E-02  4.874394724256E-01
  49 T   8 O    -2.460311563740E-01  1.273374294013E-01 -1.046686150543E-01
  50 T   8 O    -2.555165322324E-01 -1.273545914960E-01  3.938355847306E-01
  51 T   8 O    -2.353549893069E-01 -1.233297910969E-01  1.608430730484E-01
  52 T   8 O    -2.659261469438E-01  1.227640627807E-01 -3.388945918839E-01
  53 T   8 O    -3.742588744430E-01 -2.324838897144E-02  4.136572916314E-01
  54 T   8 O    -1.242228585225E-01  2.119062013212E-02 -8.528226222128E-02
  55 T   8 O    -1.224623389807E-01  3.468105143170E-03  1.513966378347E-01
  56 T   8 O    -3.775082966859E-01 -1.766600341753E-03 -3.524779785305E-01
  57 T   8 O     2.477986181081E-01 -1.270934750307E-01  1.077480185621E-01
  58 T   8 O     2.508265239296E-01  1.254325026054E-01 -3.946498406332E-01
  59 T   8 O     2.265487619895E-01  1.221981822119E-01 -1.623652900519E-01
  60 T   8 O     2.652693511421E-01 -1.225203260724E-01  3.453150516034E-01
  61 T   8 O     3.747485542744E-01  2.620138950003E-02 -4.128857624477E-01
  62 T   8 O     1.254726511540E-01 -2.187853241852E-02  9.061520079001E-02
  63 T   8 O     1.243560729960E-01 -7.430500855533E-04 -1.473025688473E-01
  64 T   8 O     3.777358787381E-01  2.467450652217E-03  3.541926778051E-01
  65 T   6 C    -1.186254995701E-01  4.391447429028E-02 -1.779515434631E-01
  66 T   6 C    -3.806117428441E-01 -4.422611449366E-02  3.197145348259E-01
  67 T   6 C    -1.108530885546E-01 -3.094240547828E-02  2.287675841375E-01
  68 T   6 C    -3.890242196041E-01  3.071257945767E-02 -2.726486124409E-01
  69 T   6 C    -2.849243661812E-01 -1.415695013093E-01  4.770700165587E-01
  70 T   6 C    -2.145602882085E-01  1.413743699791E-01 -2.346552357389E-02
  71 T   6 C    -2.088761231734E-01 -1.279705801528E-01  7.183453976362E-02
  72 T   6 C    -2.915763395474E-01  1.274897996699E-01 -4.291222016322E-01
  73 T   6 C     1.190100593208E-01 -4.625385891007E-02  1.818148013475E-01
  74 T   6 C     3.806806653574E-01  4.688704226808E-02 -3.187297427579E-01
  75 T   6 C     1.109053177901E-01  2.869727890171E-02 -2.300610005615E-01
  76 T   6 C     3.890474011325E-01 -3.108961810934E-02  2.755863515069E-01
  77 T   6 C     2.813391309239E-01  1.408093266817E-01 -4.760482117212E-01
  78 T   6 C     2.162159952170E-01 -1.412535268279E-01  2.684045398961E-02
  79 T   6 C     2.053581630828E-01  1.272740978855E-01 -6.851583844747E-02
  80 T   6 C     2.925058192555E-01 -1.273361447576E-01  4.339064990681E-01
  81 T   6 C    -5.877222782046E-02  4.851295086854E-02 -2.213573269332E-01
  82 T   6 C    -4.407371823335E-01 -4.850657483345E-02  2.773315064526E-01
  83 T   6 C    -4.901266823421E-02 -4.357105567891E-02  2.466561865248E-01
  84 T   6 C    -4.510282065602E-01  4.256603549550E-02 -2.538303586022E-01
  85 T   6 C     2.050571631869E-01  2.954720760583E-01 -3.925721828083E-03
  86 T   6 C    -2.042255626044E-01  2.042636420479E-01 -4.231236562756E-03
  87 T   6 C    -2.035462994913E-01 -1.875796228366E-01  2.907724871505E-02
  88 T   6 C     2.021915189311E-01 -3.128227638773E-01  2.897464701515E-02
  89 T   6 C     5.899212651215E-02 -5.110394759061E-02  2.237977475930E-01
  90 T   6 C     4.407275493162E-01  5.037433812517E-02 -2.755224716566E-01
  91 T   6 C     4.915834575043E-02  4.164438554213E-02 -2.454766776837E-01
  92 T   6 C     4.510119717781E-01 -4.234670163198E-02  2.562922962340E-01
  93 T   6 C    -2.085768152030E-01 -2.961801253106E-01  6.325596586323E-03
  94 T   6 C     2.058911368022E-01 -2.041369173132E-01  7.806804670337E-03
  95 T   6 C     2.005708142592E-01  1.869174777854E-01 -2.620240930763E-02
  96 T   6 C    -2.007590882421E-01  3.129786959688E-01 -2.467493707822E-02
  97 T   6 C    -3.859989373177E-02  7.583585779051E-02 -3.123550223934E-01
  98 T   6 C     3.822645645025E-02  4.250458119256E-01 -3.140947092343E-01
  99 T   6 C    -2.387164420427E-02 -7.862663653807E-02  3.218892804654E-01
 100 T   6 C     2.325406506611E-02 -4.285536492916E-01  3.289265758962E-01
 101 T   6 C     1.782138969277E-01  2.667580986735E-01  7.980798232086E-02
 102 T   6 C    -1.736684991936E-01  2.324960657311E-01  7.612048077689E-02
 103 T   6 C    -1.758794564907E-01 -2.061452659412E-01 -6.140092365801E-02
 104 T   6 C     1.741618501143E-01 -2.941356834840E-01 -6.145927960977E-02
 105 T   6 C     3.728261241924E-02 -8.310791010061E-02  3.086124713820E-01
 106 T   6 C    -3.809682439389E-02 -4.244767745070E-01  3.169948741385E-01
 107 T   6 C     2.266488905920E-02  7.271051014000E-02 -3.254686047548E-01
 108 T   6 C    -2.320607780790E-02  4.281571652612E-01 -3.256169020083E-01
 109 T   6 C    -1.785935220782E-01 -2.676541308904E-01 -7.414649304137E-02
 110 T   6 C     1.760706814417E-01 -2.325382534404E-01 -7.324796417398E-02
 111 T   6 C     1.758978021895E-01  2.052148694962E-01  6.745006309799E-02
 112 T   6 C    -1.718355666955E-01  2.941131782700E-01  6.467769370917E-02
 113 T   1 H    -6.745511563444E-02  9.829766477243E-02 -3.668239149319E-01
 114 T   1 H    -4.333542316013E-01 -9.665148679551E-02  1.299916957158E-01
 115 T   1 H    -4.924655501259E-02 -1.009313456306E-01  3.838108966148E-01
 116 T   1 H    -4.515943796896E-01  8.926907660144E-02 -1.040516022382E-01
 117 T   1 H     1.605961054123E-01  2.898936457644E-01  1.477961639732E-01
 118 T   1 H    -1.529462703284E-01  2.089442870196E-01  1.408167408006E-01
 119 T   1 H    -1.537663239174E-01 -1.758303340592E-01 -1.159619746440E-01
 120 T   1 H     1.523770316978E-01 -3.244186053059E-01 -1.166812324843E-01
 121 T   1 H     6.466412941076E-02 -1.102024403676E-01  3.580729033505E-01
 122 T   1 H     4.336704608399E-01  9.691227866569E-02 -1.263560355497E-01
 123 T   1 H     4.704390567185E-02  9.250477453731E-02 -3.912420711839E-01
 124 T   1 H    -4.837654889281E-02  4.092760038325E-01 -3.916723355582E-01
 125 T   1 H    -1.588907431645E-01 -2.909714106358E-01 -1.398822615402E-01
 126 T   1 H     1.560061594157E-01 -2.091267664163E-01 -1.388238929031E-01
 127 T   1 H     1.562508761245E-01  1.747053578837E-01  1.246357751545E-01
 128 T   1 H    -1.494418547801E-01  3.242549986520E-01  1.193797047498E-01
 129 T  16 S     1.256684351303E-01 -9.613019982167E-03  4.941488658790E-01
 130 T   8 O     5.921850239818E-02 -1.736191078333E-02 -4.761387197886E-01
 131 T   8 O     1.359296350621E-01  4.172664663226E-02  4.110885303071E-01

 T = ATOM BELONGING TO THE ASYMMETRIC UNIT

 ****    1 SYMMOPS - TRANSLATORS IN FRACTIONAL UNITS
 **** MATRICES AND TRANSLATORS IN THE CRYSTALLOGRAPHIC REFERENCE FRAME
   V INV                    ROTATION MATRICES                   TRANSLATORS
   1   1  1.00  0.00  0.00  0.00  1.00  0.00  0.00  0.00  1.00  0.00  0.00  0.00

 DIRECT LATTICE VECTORS CARTESIAN COMPONENTS (ANGSTROM)
          X                    Y                    Z
  -0.115569879573E+02   0.115518441039E+02   0.623531997961E+01
   0.115337845198E+02  -0.115458775955E+02   0.618929870055E+01
   0.111987022198E+02   0.111875291632E+02  -0.622663069847E+01


 CARTESIAN COORDINATES - PRIMITIVE CELL
 *******************************************************************************
 *      ATOM          X(ANGSTROM)         Y(ANGSTROM)         Z(ANGSTROM)
 *******************************************************************************
    1    21 SC   -5.831948189667E+00  1.443727711774E+00 -2.684325833190E+00
    2    21 SC   -5.531174017716E+00 -1.264795401174E+00  3.517168607091E+00
    3    21 SC   -7.039507010567E+00 -1.300899974920E-01 -5.771391038446E+00
    4    21 SC   -4.290237763124E+00  2.988894955620E-01  4.462096280040E-01
    5    21 SC    5.825184431197E+00 -1.452039504174E+00  2.748471486158E+00
    6    21 SC    5.521388357878E+00  1.248419086330E+00 -3.488311076971E+00
    7    21 SC    7.051666915393E+00  1.438426098620E-01  5.781984269501E+00
    8    21 SC    4.310047200053E+00 -3.005105820120E-01 -3.796505437690E-01
    9    16 S    -4.042518462800E-02  3.715171453960E-01 -1.831175118412E+00
   10    16 S    -1.060757699410E-01  1.097093190112E+01 -1.816684133691E+00
   11    16 S     7.330299783200E-02 -3.247265199260E-01  1.921510302889E+00
   12    16 S     1.036692263630E-01 -1.092578231280E+01  1.830884273821E+00
   13    16 S     5.109887654741E+00  5.519667636972E+00 -1.295764663757E+00
   14    16 S    -5.366952817180E+00  5.856939264336E+00 -1.223256976755E+00
   15    16 S    -5.255291346785E+00 -5.528075347910E+00  1.287753621906E+00
   16    16 S     5.383872409714E+00 -5.850779917144E+00  1.283167530183E+00
   17     8 O    -5.752864992255E+00  1.383394621600E-01 -1.051348873099E+00
   18     8 O    -5.596155584097E+00  2.951009938800E-02  5.160572757076E+00
   19     8 O    -5.643026106040E+00  2.195339628830E-01  2.038986300522E+00
   20     8 O    -5.709634167543E+00 -4.152748148400E-02 -4.158391816564E+00
   21     8 O     5.762655071262E+00 -1.367306939200E-01  1.121781988904E+00
   22     8 O     5.671639874832E+00 -1.116596110530E-01 -5.077993000752E+00
   23     8 O     5.679468972397E+00 -1.914175488390E-01 -1.971958954705E+00
   24     8 O     5.697139516760E+00  4.403953312700E-02  4.202321280370E+00
   25     1 H    -6.033600945527E+00 -7.659310170700E-01 -1.223127380697E+00
   26     1 H    -5.303344539689E+00  9.317367782410E-01  4.998220779134E+00
   27     1 H    -6.551470363306E+00  4.583731410510E-01  1.827977208937E+00
   28     1 H    -4.811075263787E+00 -3.334051305570E-01 -4.342236896993E+00
   29     1 H     5.969581508484E+00  7.808386490070E-01  1.328142970834E+00
   30     1 H     5.659971375070E+00 -1.039781571904E+00 -4.816604332565E+00
   31     1 H     6.591071719188E+00 -3.920004360150E-01 -1.735494646772E+00
   32     1 H     4.834022388452E+00  4.616407816120E-01  4.362106566547E+00
   33     8 O    -3.673803737654E+00  1.475943740638E+00 -2.902494918300E+00
   34     8 O    -7.684763652611E+00 -1.269798302134E+00  3.261997899643E+00
   35     8 O    -3.392857972012E+00 -1.197591192027E+00  3.584967862607E+00
   36     8 O    -7.974322227022E+00  1.338725801830E+00 -2.606365387507E+00
   37     8 O    -6.901902441547E+00 -2.273353050114E+00 -5.682787298233E+00
   38     8 O    -4.401399303503E+00  2.441335938583E+00  4.940943562040E-01
   39     8 O    -4.224118475711E+00 -1.862452655771E+00  2.409137580510E-01
   40     8 O    -7.105598657343E+00  2.026582039836E+00 -5.999990266501E+00
   41     8 O     3.672395507421E+00 -1.570314080620E+00  2.940320705491E+00
   42     8 O     7.677909487672E+00  1.334178628217E+00 -3.256641326028E+00
   43     8 O     3.371701714312E+00  1.020345607305E+00 -3.714320159183E+00
   44     8 O     7.972113113726E+00 -1.378701212334E+00  2.670658757963E+00
   45     8 O     6.852954848454E+00  2.271480349689E+00  5.701501976537E+00
   46     8 O     4.435184113508E+00 -2.438967822476E+00 -4.525584204730E-01
   47     8 O     4.253356865182E+00  1.848999389995E+00 -1.346609883780E-01
   48     8 O     7.150307785905E+00 -2.021960591056E+00  6.043807232600E+00
   49     8 O    -5.636094512937E+00  2.983113711042E+00 -1.290176324489E+00
   50     8 O    -5.772035186358E+00 -2.802049821229E+00  4.901689285756E+00
   51     8 O    -5.309748980551E+00 -2.719143391708E+00  2.006128474715E+00
   52     8 O    -6.081283702403E+00  2.884850047791E+00 -4.199641791106E+00
   53     8 O    -8.509103605378E+00 -3.920706240440E-01  5.153303932522E+00
   54     8 O    -2.829507939439E+00  5.258676502190E-01 -1.054777969529E+00
   55     8 O    -2.788628992012E+00  1.236500338810E-01  1.885647393679E+00
   56     8 O    -8.572890700049E+00  9.300505889300E-02 -4.365326687935E+00
   57     8 O     5.676114455253E+00 -2.978181335403E+00  1.328372875746E+00
   58     8 O     5.666127185379E+00  2.760018523353E+00 -4.911647719044E+00
   59     8 O     5.110002294824E+00  2.696557930313E+00 -2.024722519340E+00
   60     8 O     6.066116796428E+00 -2.879033958330E+00  4.279440192268E+00
   61     8 O     8.519159325551E+00  4.590491326570E-01 -5.143710597889E+00
   62     8 O     2.858041560515E+00 -5.419263866820E-01  1.120985062971E+00
   63     8 O     2.830606930567E+00 -6.233817907100E-02 -1.834827165765E+00
   64     8 O     8.577773314446E+00 -7.713948498300E-02  4.386628766366E+00
   65     6 C    -2.708257438247E+00  1.040035135138E+00 -2.206169958958E+00
   66     6 C    -8.643824287317E+00 -8.673749248040E-01  3.986155885366E+00
   67     6 C    -2.514188337385E+00 -6.625219337410E-01  2.846219499301E+00
   68     6 C    -8.848165407676E+00  8.361642672690E-01 -3.372765121658E+00
   69     6 C    -6.437386707132E+00 -3.114253091302E+00  5.936819698127E+00
   70     6 C    -4.927596846147E+00  3.291511905025E+00 -2.823117766560E-01
   71     6 C    -4.704090474823E+00 -2.834691756634E+00  8.992025552750E-01
   72     6 C    -6.663975939056E+00  3.000963705393E+00 -5.319686800458E+00
   73     6 C     2.717747964962E+00 -1.093346031446E+00  2.254134781081E+00
   74     6 C     8.644414844406E+00  9.278639321990E-01 -3.973899670907E+00
   75     6 C     2.516210046326E+00  6.114427290400E-01 -2.862311163521E+00
   76     6 C     8.848759303390E+00 -8.447286689250E-01  3.409261267728E+00
   77     6 C     6.356134044528E+00  3.098258056740E+00 -5.923996924032E+00
   78     6 C     4.965113577398E+00 -3.289337190963E+00  3.241832393330E-01
   79     6 C     4.624291028099E+00  2.820134642926E+00 -8.578436763600E-01
   80     6 C     6.684939259685E+00 -2.997774221035E+00  5.379096507567E+00
   81     6 C    -1.348284137065E+00  1.122894303440E+00 -2.747664751849E+00
   82     6 C    -1.000810798338E+01 -9.434169319380E-01  3.461770327976E+00
   83     6 C    -1.104292214297E+00 -9.717432096910E-01  3.066060202349E+00
   84     6 C    -1.026235379137E+01  1.128035739410E+00 -3.136537762762E+00
   85     6 C     4.555686902567E+00  6.645344491683E+00 -5.386335041000E-02
   86     6 C    -4.715641464195E+00  4.717985865912E+00 -4.317244834700E-02
   87     6 C    -4.560581142696E+00 -4.192329074012E+00  3.672425855030E-01
   88     6 C     4.707723646213E+00 -7.185675730610E+00  3.497325222490E-01
   89     6 C     1.354154672181E+00 -1.181876184598E+00  2.777955324810E+00
   90     6 C     1.000717783217E+01  9.859029442010E-01 -3.439277171316E+00
   91     6 C     1.108266756274E+00  9.278867725280E-01 -3.051427434580E+00
   92     6 C     1.026184902480E+01 -1.123027717937E+00  3.167128910982E+00
   93     6 C    -4.635499346745E+00 -6.660169507268E+00  8.380612236400E-02
   94     6 C     4.753375738424E+00 -4.715679747112E+00  8.753644058300E-02
   95     6 C     4.493111495085E+00  4.178355723757E+00 -3.314184748550E-01
   96     6 C    -4.675316570864E+00  7.188733873606E+00 -2.963623864090E-01
   97     6 C    -8.973947684050E-01  1.736428419870E+00 -3.878792075830E+00
   98     6 C     7.239826391150E-01  9.649702933532E+00 -3.900240719128E+00
   99     6 C    -5.219599706680E-01 -1.777445515603E+00  3.999559534236E+00
  100     6 C     6.745351588060E-01 -9.751411910802E+00  4.082195335430E+00
  101     6 C     3.953817607075E+00  6.002525482177E+00  9.872486032560E-01
  102     6 C    -4.032983136200E+00  5.349502829705E+00  9.542715631330E-01
  103     6 C    -3.922893791308E+00 -4.624954371103E+00 -7.581083857280E-01
  104     6 C     4.065942635104E+00 -6.751238421179E+00 -7.726657509820E-01
  105     6 C     8.701420011090E-01 -1.901340616036E+00  3.832278294458E+00
  106     6 C    -7.213069518990E-01 -9.636792528852E+00  3.936274267274E+00
  107     6 C     4.967301416720E-01  1.643327591888E+00 -4.044037629969E+00
  108     6 C    -6.733790303330E-01  9.742398663478E+00 -4.041079136039E+00
  109     6 C    -3.962257761223E+00 -6.022730875817E+00 -9.169003715070E-01
  110     6 C     4.087539175296E+00 -5.351305831123E+00 -9.186716845330E-01
  111     6 C     3.923503821610E+00  4.603827257142E+00  8.332578672550E-01
  112     6 C    -4.013127043106E+00  6.749912249397E+00  8.125662785600E-01
  113     1 H    -1.560129597212E+00  2.257211067513E+00 -4.554274895511E+00
  114     1 H    -9.819606728387E+00 -2.041726828994E+00  1.630435398188E+00
  115     1 H    -1.092240129340E+00 -2.275178105922E+00  4.769665487180E+00
  116     1 H    -1.029543273007E+01  2.191130167288E+00 -1.275166876322E+00
  117     1 H     3.543454698994E+00  6.535332283243E+00  1.832834573673E+00
  118     1 H    -3.554978252528E+00  4.806910375031E+00  1.757119673729E+00
  119     1 H    -3.429802702106E+00 -3.943861564831E+00 -1.436570751471E+00
  120     1 H     3.582850817435E+00 -7.432376010823E+00 -1.458227324248E+00
  121     1 H     1.501151904746E+00 -2.526970270879E+00  4.445547662696E+00
  122     1 H     9.826617607539E+00  2.047565444620E+00 -1.585273246348E+00
  123     1 H     1.045359981443E+00  2.084308138242E+00 -4.861985989092E+00
  124     1 H    -1.237268866529E+00  9.321678564591E+00 -4.861017109394E+00
  125     1 H    -3.504485056267E+00 -6.560403876470E+00 -1.734580383253E+00
  126     1 H     3.624556279472E+00 -4.812144458260E+00 -1.732475115903E+00
  127     1 H     3.486484553137E+00  3.917441728574E+00  1.544236886790E+00
  128     1 H    -3.516130942979E+00  7.427619982463E+00  1.491643815522E+00
  129    16 S     2.848734290815E+00 -2.606787929580E-01  6.134836245788E+00
  130     8 O     1.363452400541E+00 -4.188607131010E-01 -5.918203639765E+00
  131     8 O     3.065529897186E+00  9.025803844970E-01  5.102906282563E+00

 *******************************************************************************
 LOCAL ATOMIC FUNCTIONS BASIS SET
 *******************************************************************************
   ATOM   X(AU)   Y(AU)   Z(AU)  N. TYPE  EXPONENT  S COEF   P COEF   D/F/G COEF
 *******************************************************************************
   1 SC -11.021   2.728  -5.073
                                  1 S  
                                         3.896E+04 3.929E-03 0.000E+00 0.000E+00
                                         5.850E+03 3.009E-02 0.000E+00 0.000E+00
                                         1.331E+03 1.489E-01 0.000E+00 0.000E+00
                                         3.756E+02 5.146E-01 0.000E+00 0.000E+00
                                         1.219E+02 1.034E+00 0.000E+00 0.000E+00
                                         4.176E+01 7.744E-01 0.000E+00 0.000E+00
                                  2 S  
                                         8.106E+01-2.832E-01 0.000E+00 0.000E+00
                                         9.206E+00 1.677E+00 0.000E+00 0.000E+00
                                         3.706E+00 1.259E+00 0.000E+00 0.000E+00
                                  3 S  
                                         5.989E+00-7.782E-03 0.000E+00 0.000E+00
                                         9.736E-01 2.550E-02 0.000E+00 0.000E+00
                                         4.204E-01 1.619E-02 0.000E+00 0.000E+00
                                  4 S  
                                         4.103E-01 1.000E+00 0.000E+00 0.000E+00
                                  5 S  
                                         1.400E-01 1.000E+00 0.000E+00 0.000E+00
                             6-   8 P  
                                         4.663E+02 0.000E+00 1.998E-02 0.000E+00
                                         1.095E+02 0.000E+00 1.456E-01 0.000E+00
                                         3.438E+01 0.000E+00 5.469E-01 0.000E+00
                                         1.214E+01 0.000E+00 1.048E+00 0.000E+00
                                         4.434E+00 0.000E+00 6.889E-01 0.000E+00
                             9-  11 P  
                                         2.097E+00 0.000E+00 7.562E-01 0.000E+00
                                         8.098E-01 0.000E+00 1.318E+00 0.000E+00
                                         3.083E-01 0.000E+00 5.431E-01 0.000E+00
                            12-  14 P  
                                         2.104E-01 0.000E+00 1.000E+00 0.000E+00
                            15-  19 D  
                                         1.924E+01 0.000E+00 0.000E+00 2.704E-02
                                         5.118E+00 0.000E+00 0.000E+00 1.380E-01
                                         1.655E+00 0.000E+00 0.000E+00 3.487E-01
                                         5.402E-01 0.000E+00 0.000E+00 4.859E-01
                            20-  24 D  
                                         1.612E-01 0.000E+00 0.000E+00 1.000E+00
                            25-  31 F  
                                         3.450E-01 0.000E+00 0.000E+00 1.000E+00
   2 SC -10.452  -2.390   6.646
   3 SC -13.303  -0.246 -10.906
   4 SC  -8.107   0.565   0.843
   5 SC  11.008  -2.744   5.194
   6 SC  10.434   2.359  -6.592
   7 SC  13.326   0.272  10.926
   8 SC   8.145  -0.568  -0.717
   9 S   -0.076   0.702  -3.460
                                249 S  
                                         6.070E+04 5.470E-04 0.000E+00 0.000E+00
                                         9.103E+03 4.230E-03 0.000E+00 0.000E+00
                                         2.071E+03 2.175E-02 0.000E+00 0.000E+00
                                         5.860E+02 8.510E-02 0.000E+00 0.000E+00
                                         1.906E+02 2.480E-01 0.000E+00 0.000E+00
                                         6.763E+01 4.670E-01 0.000E+00 0.000E+00
                                         2.513E+01 3.643E-01 0.000E+00 0.000E+00
                                250 S  
                                         1.126E+02 2.167E-02 0.000E+00 0.000E+00
                                         3.480E+01 9.360E-02 0.000E+00 0.000E+00
                                         6.512E+00-2.607E-01 0.000E+00 0.000E+00
                                251 S  
                                         3.240E+00 1.284E+00 0.000E+00 0.000E+00
                                         1.548E+00 6.604E-01 0.000E+00 0.000E+00
                                252 S  
                                         2.887E-01 1.000E+00 0.000E+00 0.000E+00
                                253 S  
                                         1.153E-01 1.000E+00 0.000E+00 0.000E+00
                           254- 256 P  
                                         5.644E+02 0.000E+00 2.480E-03 0.000E+00
                                         1.334E+02 0.000E+00 1.968E-02 0.000E+00
                                         4.247E+01 0.000E+00 8.998E-02 0.000E+00
                                         1.562E+01 0.000E+00 2.571E-01 0.000E+00
                                         6.109E+00 0.000E+00 4.352E-01 0.000E+00
                           257- 259 P  
                                         2.036E+00 0.000E+00 1.000E+00 0.000E+00
                           260- 262 P  
                                         3.338E-01 0.000E+00 1.000E+00 0.000E+00
                           263- 265 P  
                                         1.155E-01 0.000E+00 1.000E+00 0.000E+00
                           266- 270 D  
                                         5.207E-01 0.000E+00 0.000E+00 1.000E+00
  10 S   -0.200  20.732  -3.433
  11 S    0.139  -0.614   3.631
  12 S    0.196 -20.647   3.460
  13 S    9.656  10.431  -2.449
  14 S  -10.142  11.068  -2.312
  15 S   -9.931 -10.447   2.434
  16 S   10.174 -11.056   2.425
  17 O  -10.871   0.261  -1.987
                                425 S  
                                         2.703E+04 2.173E-04 0.000E+00 0.000E+00
                                         4.052E+03 1.684E-03 0.000E+00 0.000E+00
                                         9.223E+02 8.740E-03 0.000E+00 0.000E+00
                                         2.612E+02 3.524E-02 0.000E+00 0.000E+00
                                         8.535E+01 1.115E-01 0.000E+00 0.000E+00
                                         3.104E+01 2.559E-01 0.000E+00 0.000E+00
                                426 S  
                                         1.226E+01 3.977E-01 0.000E+00 0.000E+00
                                         4.999E+00 2.463E-01 0.000E+00 0.000E+00
                                427 S  
                                         1.099E+00 1.000E+00 0.000E+00 0.000E+00
                                428 S  
                                         3.566E-01 1.000E+00 0.000E+00 0.000E+00
                           429- 431 P  
                                         6.327E+01 0.000E+00 6.069E-03 0.000E+00
                                         1.463E+01 0.000E+00 4.191E-02 0.000E+00
                                         4.450E+00 0.000E+00 1.615E-01 0.000E+00
                                         1.528E+00 0.000E+00 3.571E-01 0.000E+00
                           432- 434 P  
                                         5.490E-01 0.000E+00 1.000E+00 0.000E+00
                           435- 437 P  
                                         1.859E-01 0.000E+00 1.000E+00 0.000E+00
                           438- 442 D  
                                         2.535E-01 0.000E+00 0.000E+00 1.000E+00
  18 O  -10.575   0.056   9.752
  19 O  -10.664   0.415   3.853
  20 O  -10.790  -0.078  -7.858
  21 O   10.890  -0.258   2.120
  22 O   10.718  -0.211  -9.596
  23 O   10.733  -0.362  -3.726
  24 O   10.766   0.083   7.941
  25 H  -11.402  -1.447  -2.311
                                569 S  
                                         3.406E+01 6.025E-03 0.000E+00 0.000E+00
                                         5.124E+00 4.502E-02 0.000E+00 0.000E+00
                                         1.165E+00 2.019E-01 0.000E+00 0.000E+00
                                570 S  
                                         4.157E-01 1.000E+00 0.000E+00 0.000E+00
                                571 S  
                                         1.795E-01 1.000E+00 0.000E+00 0.000E+00
                           572- 574 P  
                                         8.000E-01 0.000E+00 1.000E+00 0.000E+00
  26 H  -10.022   1.761   9.445
  27 H  -12.380   0.866   3.454
  28 H   -9.092  -0.630  -8.206
  29 H   11.281   1.476   2.510
  30 H   10.696  -1.965  -9.102
  31 H   12.455  -0.741  -3.280
  32 H    9.135   0.872   8.243
  33 O   -6.942   2.789  -5.485
  34 O  -14.522  -2.400   6.164
  35 O   -6.412  -2.263   6.775
  36 O  -15.069   2.530  -4.925
  37 O  -13.043  -4.296 -10.739
  38 O   -8.317   4.613   0.934
  39 O   -7.982  -3.520   0.455
  40 O  -13.428   3.830 -11.338
  41 O    6.940  -2.967   5.556
  42 O   14.509   2.521  -6.154
  43 O    6.372   1.928  -7.019
  44 O   15.065  -2.605   5.047
  45 O   12.950   4.292  10.774
  46 O    8.381  -4.609  -0.855
  47 O    8.038   3.494  -0.254
  48 O   13.512  -3.821  11.421
  49 O  -10.651   5.637  -2.438
  50 O  -10.908  -5.295   9.263
  51 O  -10.034  -5.138   3.791
  52 O  -11.492   5.452  -7.936
  53 O  -16.080  -0.741   9.738
  54 O   -5.347   0.994  -1.993
  55 O   -5.270   0.234   3.563
  56 O  -16.200   0.176  -8.249
  57 O   10.726  -5.628   2.510
  58 O   10.707   5.216  -9.282
  59 O    9.657   5.096  -3.826
  60 O   11.463  -5.441   8.087
  61 O   16.099   0.867  -9.720
  62 O    5.401  -1.024   2.118
  63 O    5.349  -0.118  -3.467
  64 O   16.210  -0.146   8.290
  65 C   -5.118   1.965  -4.169
                               1193 S  
                                         1.358E+04 2.225E-04 0.000E+00 0.000E+00
                                         2.035E+03 1.723E-03 0.000E+00 0.000E+00
[...]
  17 T   8 O    -2.502819054938E-01  4.646086080759E-03 -1.018061127405E-01
  18 T   8 O    -2.490875453597E-01 -4.108673496740E-03  3.970907674054E-01
  19 T   8 O    -2.497342296672E-01  6.869361928022E-03  1.455924855280E-01
  20 T   8 O    -2.506322704840E-01 -6.185452013289E-03 -3.533264061921E-01
  21 T   8 O     2.515483626148E-01 -4.834281612137E-03  1.068562186081E-01
  22 T   8 O     2.520564966702E-01  1.069323349177E-03 -3.924637710728E-01
  23 T   8 O     2.505267071664E-01 -5.236740635483E-03 -1.412775741820E-01
  24 T   8 O     2.518404463806E-01  8.881820416518E-03  3.525626788701E-01
  25 T   1 H    -2.750098834918E-01 -3.250698557858E-02 -1.063364864628E-01
  26 T   1 H    -2.248549317661E-01  3.330214774532E-02  3.911018459715E-01
  27 T   1 H    -2.864867037015E-01  2.313837965152E-02  1.325461168074E-01
  28 T   1 H    -2.148705113776E-01 -2.464642779427E-02 -3.631221074156E-01
  29 T   1 H     2.722908531225E-01  3.419004492273E-02  1.153712557113E-01
  30 T   1 H     2.431419689341E-01 -4.040289853681E-02 -3.753813836532E-01
  31 T   1 H     2.883498263007E-01 -1.856618791261E-02 -1.248001526317E-01
  32 T   1 H     2.238727138905E-01  3.791983999727E-02  3.505713282390E-01
  33 T   8 O    -1.522949553064E-01  5.865808251681E-02 -2.547153864175E-01
  34 T   8 O    -3.479558744346E-01 -5.812816310938E-02  2.425072514610E-01
  35 T   8 O    -1.594211407155E-01 -5.344480412013E-02  2.717029164009E-01
  36 T   8 O    -3.414776647193E-01  5.201888180430E-02 -2.266870683463E-01
  37 T   8 O    -3.088862318221E-01 -1.067963866503E-01 -4.685523734800E-01
  38 T   8 O    -1.893710252512E-01  1.076939159712E-01  2.736258510334E-02
  39 T   8 O    -1.906616461564E-01 -8.137719939473E-02  7.506712220965E-03
  40 T   8 O    -3.079346504208E-01  8.228040463545E-02 -4.980187812029E-01
  41 T   8 O     1.510900805459E-01 -6.073138993691E-02  2.617502307295E-01
  42 T   8 O     3.473812059610E-01  6.088459073208E-02 -2.435658741324E-01
  43 T   8 O     1.577492053050E-01  4.696290637746E-02 -2.812603430486E-01
  44 T   8 O     3.403388770289E-01 -5.703550714959E-02  2.354124006428E-01
  45 T   8 O     3.059232241704E-01  1.073348117450E-01  4.685164088852E-01
  46 T   8 O     1.892005470287E-01 -1.062673078396E-01 -2.391190726248E-02
  47 T   8 O     1.941309069559E-01  8.228326318001E-02  3.093462691051E-03
  48 T   8 O     3.084071703476E-01 -8.107379721594E-02 -4.992298232359E-01
  49 T   8 O    -2.289098214492E-01  1.301153590887E-01 -1.305256183373E-01
  50 T   8 O    -2.731513917011E-01 -1.287009844874E-01  3.708468663534E-01
  51 T   8 O    -2.462577536973E-01 -1.224108095736E-01  1.426072412158E-01
  52 T   8 O    -2.557096454864E-01  1.221737088900E-01 -3.582452553791E-01
  53 T   8 O    -3.773377312316E-01 -3.001371707829E-02  4.043025305158E-01
  54 T   8 O    -1.215782072706E-01  2.851881815136E-02 -9.449375624122E-02
  55 T   8 O    -1.229561526715E-01  6.800850274906E-03  1.393447374991E-01
  56 T   8 O    -3.772702454144E-01 -3.141010112705E-03 -3.656426486561E-01
  57 T   8 O     2.277877453945E-01 -1.292840362340E-01  1.343838809417E-01
  58 T   8 O     2.669861531809E-01  1.273833244497E-01 -3.728601779605E-01
  59 T   8 O     2.388726276775E-01  1.218756539260E-01 -1.449084225702E-01
  60 T   8 O     2.504544947173E-01 -1.205156499573E-01  3.681091630909E-01
  61 T   8 O     3.782664426493E-01  3.446589452452E-02 -4.056189308261E-01
  62 T   8 O     1.231425541044E-01 -2.728486361167E-02  1.019470372679E-01
  63 T   8 O     1.246121750818E-01 -1.918727467192E-03 -1.331260905660E-01
  64 T   8 O     3.775625729562E-01  2.798362091593E-03  3.673622270648E-01
  65 T   6 C    -1.122907369595E-01  4.470122407758E-02 -1.913143023853E-01
  66 T   6 C    -3.874787307902E-01 -4.596472215655E-02  3.078095658095E-01
  67 T   6 C    -1.166966230887E-01 -2.861369286256E-02  2.169670117074E-01
  68 T   6 C    -3.838223280715E-01  2.934726301660E-02 -2.846304093137E-01
  69 T   6 C    -2.934681081036E-01 -1.433401958021E-01  4.633611262143E-01
  70 T   6 C    -2.065217572617E-01  1.443926650127E-01 -3.945371114639E-02
  71 T   6 C    -2.146660179951E-01 -1.257839794840E-01  5.924262585660E-02
  72 T   6 C    -2.860295952337E-01  1.262147236521E-01 -4.433704106878E-01
  73 T   6 C     1.120452094861E-01 -4.578055119992E-02  1.968560599901E-01
  74 T   6 C     3.874434799682E-01  4.873910607414E-02 -3.079462335971E-01
  75 T   6 C     1.162173851592E-01  2.718818656973E-02 -2.183952784895E-01
  76 T   6 C     3.832781436487E-01 -3.204877394361E-02  2.892361433552E-01
  77 T   6 C     2.892054885402E-01  1.432993326908E-01 -4.634018561560E-01
  78 T   6 C     2.058533068421E-01 -1.433410693340E-01  4.278089009904E-02
  79 T   6 C     2.129230703408E-01  1.261280678910E-01 -5.528784761526E-02
  80 T   6 C     2.840399772808E-01 -1.250913231179E-01  4.488629398954E-01
  81 T   6 C    -5.128650909561E-02  4.669693614103E-02 -2.294946713441E-01
  82 T   6 C    -4.490833607034E-01 -4.969235580272E-02  2.721021165145E-01
  83 T   6 C    -5.661055599004E-02 -4.163686197997E-02  2.411018587088E-01
  84 T   6 C    -4.442890951993E-01  4.119252708038E-02 -2.597911773443E-01
  85 T   6 C     2.014860247052E-01  2.935960354083E-01 -1.042425807731E-02
  86 T   6 C    -2.010328433061E-01  2.073359252554E-01 -1.276629063729E-02
  87 T   6 C    -2.058979921234E-01 -1.853713361465E-01  2.318311144063E-02
  88 T   6 C     2.041410749513E-01 -3.140066481158E-01  2.232791246685E-02
  89 T   6 C     5.043359844690E-02 -4.963758102963E-02  2.316366846434E-01
  90 T   6 C     4.486474804014E-01  5.024037611433E-02 -2.703791610808E-01
  91 T   6 C     5.571773428195E-02  3.866950117610E-02 -2.419248528759E-01
  92 T   6 C     4.435447833108E-01 -4.355686648106E-02  2.635366532590E-01
  93 T   6 C    -2.045582907691E-01 -2.934572015547E-01  1.242285783981E-02
  94 T   6 C     2.003888117780E-01 -2.061292565819E-01  1.581601342865E-02
  95 T   6 C     2.045693142360E-01  1.857539946614E-01 -1.957229853321E-02
  96 T   6 C    -2.053136611428E-01  3.151807399468E-01 -1.851142092413E-02
  97 T   6 C    -2.705186435218E-02  6.929576254537E-02 -3.233592881564E-01
  98 T   6 C     2.565792258619E-02  4.264353364219E-01 -3.197919857579E-01
  99 T   6 C    -3.725897007207E-02 -7.547971260996E-02  3.220257685471E-01
 100 T   6 C     3.460698520575E-02 -4.335253512233E-01  3.295310938314E-01
 101 T   6 C     1.795500240857E-01  2.646977027404E-01  7.989284721581E-02
 102 T   6 C    -1.747740298635E-01  2.357520451569E-01  7.430608444273E-02
 103 T   6 C    -1.793151615896E-01 -2.024773460815E-01 -6.809281714749E-02
 104 T   6 C     1.778418080222E-01 -2.958847460497E-01 -6.902260503004E-02
 105 T   6 C     2.371871084306E-02 -8.025993899747E-02  3.164756560267E-01
 106 T   6 C    -2.645679286532E-02 -4.288901214806E-01  3.239396956079E-01
 107 T   6 C     3.408680444753E-02  6.560471368483E-02 -3.298792823525E-01
 108 T   6 C    -3.569513492967E-02  4.294060157461E-01 -3.241802178738E-01
 109 T   6 C    -1.788094118365E-01 -2.640727677202E-01 -7.448655396364E-02
 110 T   6 C     1.759475670236E-01 -2.343624543001E-01 -7.298842064049E-02
 111 T   6 C     1.811160027911E-01  2.031978629131E-01  7.455745512225E-02
 112 T   6 C    -1.768778408747E-01  2.972339964502E-01  7.068758287171E-02
 113 T   1 H    -5.279079655412E-02  8.878321469747E-02 -3.843284826754E-01
 114 T   1 H    -4.490911359846E-01 -9.313260108795E-02  1.191381600427E-01
 115 T   1 H    -6.656202542634E-02 -9.656552614889E-02  3.823961122347E-01
 116 T   1 H    -4.373081210795E-01  8.097328772529E-02 -1.033737880063E-01
 117 T   1 H     1.626569312971E-01  2.875586991390E-01  1.470912492646E-01
 118 T   1 H    -1.543341977112E-01  2.125395623789E-01  1.377777920581E-01
 119 T   1 H    -1.608629364072E-01 -1.711450335050E-01 -1.278813992365E-01
 120 T   1 H     1.605900844739E-01 -3.264303610329E-01 -1.306118540283E-01
 121 T   1 H     4.716576304467E-02 -1.064789359248E-01  3.708926267434E-01
 122 T   1 H     4.482825142500E-01  8.976365086164E-02 -1.139020777285E-01
 123 T   1 H     6.163099216871E-02  8.173093344523E-02 -3.965985766330E-01
 124 T   1 H    -6.419387879231E-02  4.125637210629E-01 -3.892166786729E-01
 125 T   1 H    -1.598717693701E-01 -2.866859450557E-01 -1.398932195860E-01
 126 T   1 H     1.570221791085E-01 -2.110122269198E-01 -1.380423780310E-01
 127 T   1 H     1.655534052303E-01  1.721938768510E-01  1.370399818319E-01
 128 T   1 H    -1.582695139645E-01  3.278631954596E-01  1.310846067766E-01
 129 T  16 S     1.356988358735E-01 -9.613137946406E-03  4.875619961359E-01
 130 T   8 O     7.740948326244E-02 -3.498520267906E-02 -4.645362475940E-01
 131 T   8 O     1.359643170000E-01  5.039187865607E-02  4.341845324304E-01

 T = ATOM BELONGING TO THE ASYMMETRIC UNIT
 INFORMATION **** fort.34 **** GEOMETRY OUTPUT FILE

 DIRECT LATTICE VECTORS CARTESIAN COMPONENTS (ANGSTROM)
          X                    Y                    Z
  -0.119912344984E+02   0.120001609792E+02   0.626006793532E+01
   0.119760700767E+02  -0.119691291250E+02   0.618462362402E+01
   0.107277972993E+02   0.107052114049E+02  -0.620644415722E+01


 CARTESIAN COORDINATES - PRIMITIVE CELL
 *******************************************************************************
 *      ATOM          X(ANGSTROM)         Y(ANGSTROM)         Z(ANGSTROM)
 *******************************************************************************
    1    21 SC   -5.668952517425E+00  1.658736961558E+00 -2.936703235648E+00
    2    21 SC   -5.690857868272E+00 -1.015702623865E+00  3.275519663918E+00
    3    21 SC   -7.045734875078E+00  8.775386627749E-02 -5.959532876497E+00
    4    21 SC   -4.278920382792E+00  5.505538921297E-01  2.772126300448E-01
    5    21 SC    5.651077801367E+00 -1.662231146285E+00  2.998621854030E+00
    6    21 SC    5.652604276684E+00  1.010005473708E+00 -3.264075952010E+00
    7    21 SC    7.061614485768E+00 -5.137842797099E-02  5.960959351617E+00
    8    21 SC    4.291502143101E+00 -5.201904845487E-01 -2.103101720702E-01
    9    16 S     7.602195859507E-04  4.146017242470E-01 -1.812359809044E+00
   10    16 S    -6.150026280652E-01  1.085735239315E+01 -1.759978661020E+00
   11    16 S     2.505561691664E-02 -3.235711789823E-01  1.913627339496E+00
   12    16 S     6.088120785457E-01 -1.082646453077E+01  1.769566996446E+00
   13    16 S     4.807259377872E+00  5.281071533405E+00 -1.311676771063E+00
   14    16 S    -5.544875248750E+00  6.102360029995E+00 -1.259586426275E+00
   15    16 S    -4.936406369714E+00 -5.276885020138E+00  1.307727246186E+00
   16    16 S     5.478560569217E+00 -6.076704410266E+00  1.325574746795E+00
   17     8 O    -5.686693396126E+00  4.186676175190E-01 -1.261235246596E+00
   18     8 O    -5.656081195767E+00  2.338596634688E-01  4.946887021880E+00
   19     8 O    -5.680819662860E+00  4.761329435839E-01  1.817671270943E+00
   20     8 O    -5.677148908466E+00  1.653712030541E-01 -4.391900902362E+00
   21     8 O     5.715608061938E+00 -4.243846505880E-01  1.324044529935E+00
   22     8 O     5.727257734881E+00 -3.064781662710E-01 -4.889533245213E+00
   23     8 O     5.696683819292E+00 -4.399313958288E-01 -1.763903275095E+00
   24     8 O     5.701184063130E+00 -1.056998891735E-01  4.382514777822E+00
   25     1 H    -6.201104855782E+00 -3.937931660442E-01 -1.319067060625E+00
   26     1 H    -5.153082555236E+00  1.052472413905E+00  4.873834082889E+00
   27     1 H    -6.535600000624E+00  8.915742994976E-01  1.656987601020E+00
   28     1 H    -4.841745842905E+00 -2.992960264355E-01 -4.515575670616E+00
   29     1 H     6.137108904050E+00  4.357246515048E-01  1.431651559925E+00
   30     1 H     5.577001982771E+00 -1.236323080063E+00 -4.678977580154E+00
   31     1 H     6.572005948831E+00 -7.898754454911E-01 -1.560386942158E+00
   32     1 H     5.029550857421E+00  5.889062760879E-01  4.359900432586E+00
   33     8 O    -3.527932659279E+00  1.516437608850E+00 -3.163385794257E+00
   34     8 O    -7.830180224514E+00 -8.725085442379E-01  3.022403476324E+00
   35     8 O    -3.556072499710E+00 -1.003557529561E+00  3.381871732359E+00
   36     8 O    -7.815148623717E+00  1.605673233779E+00 -2.810809972369E+00
   37     8 O    -6.870876188218E+00 -2.048984995210E+00 -5.829976530824E+00
   38     8 O    -4.435934079497E+00  2.685428971869E+00  3.504260632732E-01
   39     8 O    -4.226055582119E+00 -1.606486035520E+00  9.321530410986E-02
   40     8 O    -7.087711420836E+00  2.241956842271E+00 -6.186558638410E+00
   41     8 O     3.503090156887E+00 -1.561771659068E+00  3.250847374320E+00
   42     8 O     7.813666507910E+00  9.357877425037E-01 -3.035417359311E+00
   43     8 O     3.526447503464E+00  8.582002316798E-01 -3.501122060415E+00
   44     8 O     7.795499615481E+00 -1.717867483175E+00  2.919149880102E+00
   45     8 O     6.802924734546E+00  2.064954019312E+00  5.829622489329E+00
   46     8 O     4.430208807229E+00 -2.652714751617E+00 -3.074032218295E-01
   47     8 O     4.303515718990E+00  1.623002634050E+00  3.867348858823E-02
   48     8 O     7.096873254566E+00 -2.215072216892E+00  6.220853299738E+00
   49     8 O    -5.359551466590E+00  3.239590408685E+00 -1.612378849299E+00
   50     8 O    -6.044611037661E+00 -2.565454828882E+00  4.614133743492E+00
   51     8 O    -5.438507566228E+00 -2.463708109495E+00  1.773512476458E+00
   52     8 O    -5.954524104359E+00  3.086078493507E+00 -4.446120569128E+00
   53     8 O    -8.535236373272E+00 -1.920025207690E-01  5.038044550517E+00
   54     8 O    -2.794894286256E+00  7.982629201646E-01 -1.171763462622E+00
   55     8 O    -2.802285712901E+00  3.141464237484E-01  1.737149934691E+00
   56     8 O    -8.555980388513E+00  3.941741748189E-01 -4.542246178383E+00
   57     8 O     5.332967168116E+00 -3.219176972846E+00  1.660462800336E+00
   58     8 O     5.906331591370E+00  2.543266744472E+00 -4.639124914573E+00
   59     8 O     5.271547676155E+00  2.460819982949E+00 -1.802017518316E+00
   60     8 O     5.832967424466E+00 -3.041483474481E+00  4.569077439748E+00
   61     8 O     8.550716629977E+00  2.918762024457E-01 -5.054208268749E+00
   62     8 O     2.828738960537E+00 -7.719914393895E-01  1.264549280527E+00
   63     8 O     2.833621268326E+00 -2.051961072986E-01 -1.659535129114E+00
   64     8 O     8.563024192096E+00 -4.022702419887E-01  4.563621048468E+00
   65     6 C    -2.603010018084E+00  1.150947353422E+00 -2.376000191802E+00
   66     6 C    -8.743859929131E+00 -5.443529975395E-01  3.836585295960E+00
   67     6 C    -2.616603229123E+00 -4.954567332682E-01  2.701099547472E+00
   68     6 C    -8.747013400756E+00  1.142627767708E+00 -3.532188733349E+00
   69     6 C    -6.488786273483E+00 -2.869294026297E+00  5.765103484069E+00
   70     6 C    -4.870675358675E+00  3.538291415427E+00 -4.787399710000E-01
   71     6 C    -4.715727024145E+00 -2.582813501574E+00  7.351953207168E-01
   72     6 C    -6.646718916896E+00  3.213511568842E+00 -5.504598578938E+00
   73     6 C     2.598715219379E+00 -1.174971580121E+00  2.444913135833E+00
   74     6 C     8.739556411786E+00  6.073867306088E-01 -3.838136542284E+00
   75     6 C     2.607545371247E+00  4.636514775982E-01 -2.718939870846E+00
   76     6 C     8.738001655899E+00 -1.203135850504E+00  3.589372682072E+00
   77     6 C     6.392060569862E+00  2.873752550612E+00 -5.765519534232E+00
   78     6 C     4.854119869158E+00 -3.513466429084E+00  5.202166633064E-01
   79     6 C     4.675660665741E+00  2.592951823515E+00 -6.859228419502E-01
   80     6 C     6.600044257709E+00 -3.185319184624E+00  5.573055066312E+00
   81     6 C    -1.219920592930E+00  1.117971606755E+00 -2.852367234275E+00
   82     6 C    -1.013727216260E+01 -5.522351925601E-01  3.393361459186E+00
   83     6 C    -1.236329165250E+00 -8.663475335843E-01  2.999440812684E+00
   84     6 C    -1.013518528212E+01  1.488774725138E+00 -3.221117548008E+00
   85     6 C     4.203729908261E+00  6.411222073422E+00 -1.183794803411E-01
   86     6 C    -4.825985339904E+00  4.961332202840E+00 -1.433677698582E-01
   87     6 C    -4.440827222924E+00 -3.947967680845E+00  2.830591638390E-01
   88     6 C     5.031180981794E+00 -7.386962522072E+00  2.565712938891E-01
   89     6 C     1.204239060427E+00 -1.183595564473E+00  2.878884851577E+00
   90     6 C     1.012665747716E+01  5.652825811486E-01 -3.371880912183E+00
   91     6 C     1.219820213852E+00  8.000754156771E-01 -3.009822360501E+00
   92     6 C     1.012121692009E+01 -1.541400953626E+00  3.267618296981E+00
   93     6 C    -4.273687944984E+00 -6.404124687303E+00  1.433259212154E-01
   94     6 C     4.809792536134E+00 -4.933025699851E+00  1.813993885826E-01
   95     6 C     4.410122875492E+00  3.958447474668E+00 -2.380741988724E-01
   96     6 C    -5.059344489354E+00  7.415221199582E+00 -2.089876881054E-01
   97     6 C    -6.968292280769E-01  1.597542985679E+00 -4.019800417257E+00
   98     6 C     4.860926503438E-02  9.640019869936E+00 -3.957405421601E+00
   99     6 C    -7.554421729334E-01 -1.656709653064E+00  4.004276866962E+00
  100     6 C     1.328447309405E+00 -9.876868958486E+00  4.076910411838E+00
  101     6 C     3.740839481250E+00  5.785602676049E+00  1.004518055016E+00
  102     6 C    -4.267031107194E+00  5.576043824542E+00  9.411718797503E-01
  103     6 C    -3.814297648060E+00 -4.372796978293E+00 -8.543389546500E-01
  104     6 C     4.412575305925E+00 -6.945092653791E+00 -8.787120912639E-01
  105     6 C     6.351106875480E-01 -1.842489474994E+00  3.933620529216E+00
  106     6 C    -6.370814076487E-02 -9.694618261387E+00  4.008908188289E+00
  107     6 C     6.960172802760E-01  1.436259772425E+00 -4.102471740333E+00
  108     6 C    -1.348029137684E+00  9.784879291821E+00 -4.010517561298E+00
  109     6 C    -3.724896268431E+00 -5.772181599340E+00 -9.372210521904E-01
  110     6 C     4.291899296848E+00 -5.545935011538E+00 -9.247250522473E-01
  111     6 C     3.854175347600E+00  4.387081075859E+00  9.347887218083E-01
  112     6 C    -4.392419465227E+00  6.974561178765E+00  8.994835445837E-01
  113     1 H    -1.304899140582E+00  2.070652748964E+00 -4.776936609634E+00
  114     1 H    -1.008024505980E+01 -1.543299066094E+00  1.487442940783E+00
  115     1 H    -1.395009735559E+00 -2.096560846872E+00  4.755075880791E+00
  116     1 H    -1.002932264360E+01  2.388042254027E+00 -1.272570517075E+00
  117     1 H     3.327398484849E+00  6.328106882686E+00  1.842375951083E+00
  118     1 H    -3.774602866332E+00  5.025131137829E+00  1.729366954707E+00
  119     1 H    -3.434040524696E+00 -3.686562598529E+00 -1.597111897934E+00
  120     1 H     4.060420894052E+00 -7.618748686185E+00 -1.646432827893E+00
  121     1 H     1.199750305244E+00 -2.465748049030E+00  4.608905356526E+00
  122     1 H     1.006606327405E+01  1.467990313344E+00 -1.422444522686E+00
  123     1 H     1.302014158864E+00  1.765527586877E+00 -4.932509058743E+00
  124     1 H    -1.972795416793E+00  9.436470584637E+00 -4.820157545740E+00
  125     1 H    -3.265376361769E+00 -6.311587523531E+00 -1.752812665245E+00
  126     1 H     3.833704759345E+00 -4.993858015387E+00 -1.732636397219E+00
  127     1 H     3.539068274480E+00  3.704732818413E+00  1.711041527866E+00
  128     1 H    -4.009552434307E+00  7.648363385615E+00  1.652342287939E+00
  129    16 S     3.085640373157E+00 -3.746520873480E-01  6.064082144241E+00
  130     8 O     1.808740671644E+00 -9.066066934507E-01 -5.784575474387E+00
  131     8 O     3.016664689705E+00  9.857922115586E-01  5.403027974963E+00

 ****    1 SYMMOPS - TRANSLATORS IN FRACTIONAL UNITS
 **** MATRICES AND TRANSLATORS IN THE CRYSTALLOGRAPHIC REFERENCE FRAME
   V INV                    ROTATION MATRICES                   TRANSLATORS
   1   1  1.00  0.00  0.00  0.00  1.00  0.00  0.00  0.00  1.00  0.00  0.00  0.00
 TTTTTTTTTTTTTTTTTTTTTTTTTTTTTT END         TELAPSE    78911.08 TCPU    73350.89
 EEEEEEEEEE TERMINATION  DATE 27 04 2020 TIME 06:11:02.6
NODE    0 CPU TIME =     73350.893
    TOTAL CPU TIME =   5788323.231
