
         
 *******************************************************************************
 *                                                                             *
 *                               CRYSTAL23                                     *
 *                      public : 1.0.1 - October 2022                          *
 *                       HTTP://WWW.CRYSTAL.UNITO.IT                           *
 *                                                                             *
 *                              MAIN AUTHORS                                   *
 *                                                                             *
 *  R. DOVESI(1,11), V.R. SAUNDERS(2), C. ROETTI(1,11), R. ORLANDO(1,11),      *
 *  C.M. ZICOVICH-WILSON(1,3), F. PASCALE(4), B. CIVALLERI(1,11),              *
 *  K. DOLL(5), N.M. HARRISON(6), I.J. BUSH(7), Ph. D'ARCO(8),                 *
 *  M. LLUNELL(9), M. CAUSA'(10), Y. NOEL(8), L. MASCHIO(1,11), A. ERBA(1,11)  *
 *  M. RE'RAT(14), S. CASASSA(1,11), B.G. SEARLE(2), J.K. DESMARAIS(1)         *
 *                                                                             *
 *        CONTRIBUTIONS TO THE CODE HAVE ALSO BEEN GIVEN BY                    *
 *                                                                             *
 *  M. FERRABONE(1,11), M. DE LA PIERRE(1,11), M. FERRERO(1,11),               *
 *  J. BAIMA(1,11), E. ALBANESE(1,11), M.F. PEINTINGER(12), R. BAST(13),       *
 *  B. KIRTMAN(15), V. LACIVITA(1,11), R. DEMICHELIS(1,16)                     *
 *  G. BRANDEBURG(17), S. SALUSTRO(1,11), G. SANSONE(1,11)                     *
 *  M.T. RUGGIERO(18), L.E. DAGA(1), L. DONA'(1), A. COSSARD(1)                *
 *                                                                             *
 * (1) THEORETICAL CHEMISTRY GROUP - UNIVERSITA' DI TORINO - TORINO (ITALY)    *
 * (2) SCIENTIFIC COMPUTING DEPARTMENT - STFC DARESBURY (UK)                   *
 * (3) UNIVERSIDAD AUTONOMA DEL ESTADO DE MORELOS - CUERNAVACA (MEXICO)        *
 * (4) UNIVERSITE' DE LORRAINE - NANCY (FRANCE)                                *
 * (5) UNIVERSITAET STUTTGART- STUTTGART (GERMANY)                             *
 * (6) IMPERIAL COLLEGE - LONDON (UK)                                          *
 * (7) SCIENTIFIC COMPUTING DEPARTMENT - STFC RAL (UK)                         *
 * (8) UPMC - SORBONNE UNIVERSITES - PARIS (FRANCE)                            *
 * (9) UNIVERSIDAD DE BARCELONA - BARCELONA (SPAIN)                            *
 *(10) UNIVERSITA' DI NAPOLI "FEDERICO II" - NAPOLI (ITALY)                    *
 *(11) NIS - NANOSTRUCTURED INTERFACES AND SURFACES - TORINO (ITALY)           *
 *(12) MPI FUER CHEMISCHE ENERGIEKONVERSION - MUELHEIM AN DER RUHR (GERMANY)   *
 *(13) UNIVERSITY OF TROMSO - TROMSO (NORWAY)                                  *
 *(14) UNIVERSITE' DE PAU ET DES PAYS DE L'ADOUR - PAU (FRANCE)                *
 *(15) UNIVERSITY OF CALIFORNIA SANTA BARBARA - SANTA BARBARA (USA)            *
 *(16) CURTIN UNIVERSITY - PERTH (AUSTRALIA)                                   *
 *(17) UNIVERSITY COLLEGE LONDON - LONDON (UK)                                 *
 *(18) UNIVERSITY OF VERMONT - BURLINGTON (USA)                                *
 *                                                                             *
 *******************************************************************************
 EEEEEEEEEE STARTING  DATE 06 08 2025 TIME 16:01:32.0
 INFORMATION **** SET_MPP **** PCRYSTAL CALCULATION

 *******************************************************************************
 NOTT-401 MOF                                                                    
 CRYSTAL - PROPERTIES - TYPE OF CALCULATION :  RESTRICTED CLOSED SHELL
 *******************************************************************************
 KOHN-SHAM HAMILTONIAN

 (EXCHANGE)[CORRELATION] FUNCTIONAL:(BECKE 88)[LEE-YANG-PARR]

 NON-LOCAL WEIGHTING FACTOR (EXCHANGE) =           0.9000
 NON-LOCAL WEIGHTING FACTOR [CORRELATION] =        0.8100

 HYBRID EXCHANGE - PERCENTAGE OF FOCK EXCHANGE    20.0000

 DIRECT LATTICE VECTOR COMPONENTS (ANGSTROM)
       -11.99123   12.00016    6.26007
        11.97607  -11.96913    6.18462
        10.72780   10.70521   -6.20644

 LATTICE PARAMETERS  (ANGSTROM AND DEGREES) - PRIMITIVE CELL
       A          B          C         ALPHA      BETA     GAMMA        VOLUME
   18.08264   18.02598   16.37703     97.4035   97.5730  139.6798    3197.65973
 *******************************************************************************
 N. OF ATOMS PER CELL       131 COULOMB OVERLAP TOL          (T1) 10**   -7
 NUMBER OF SHELLS           994 COULOMB PENETRATION TOL      (T2) 10**   -7
 NUMBER OF AO              2210 EXCHANGE OVERLAP TOL         (T3) 10**   -7
 N. OF ELECTRONS PER CELL   960 EXCHANGE PSEUDO OVP (F(G))   (T4) 10**   -9
 CORE ELECTRONS PER CELL    414 EXCHANGE PSEUDO OVP (P(G))   (T5) 10**  -30
 N. OF SYMMETRY OPERATORS     1 POLE ORDER IN MONO ZONE                   4
 *******************************************************************************
   ATOM N.AT.  SHELL    X(A)      Y(A)      Z(A)      EXAD       N.ELECT.
 *******************************************************************************
    1   21 SC   11    -5.669     1.659    -2.937   3.450E-01      19.446
    2   21 SC   11    -5.691    -1.016     3.276   3.450E-01      19.449
    3   21 SC   11    -7.046     0.088    -5.960   3.450E-01      19.447
    4   21 SC   11    -4.279     0.551     0.277   3.450E-01      19.446
    5   21 SC   11     5.651    -1.662     2.999   3.450E-01      19.434
    6   21 SC   11     5.653     1.010    -3.264   3.450E-01      19.432
    7   21 SC   11     7.062    -0.051     5.961   3.450E-01      19.445
    8   21 SC   11     4.292    -0.520    -0.210   3.450E-01      19.447
    9   16 S    10     0.001     0.415    -1.812   5.207E-01      16.050
   10   16 S    10    -0.615    10.857    -1.760   5.207E-01      16.045
   11   16 S    10     0.025    -0.324     1.914   5.207E-01      16.045
   12   16 S    10     0.609   -10.826     1.770   5.207E-01      16.044
   13   16 S    10     4.807     5.281    -1.312   5.207E-01      16.045
   14   16 S    10    -5.545     6.102    -1.260   5.207E-01      16.044
   15   16 S    10    -4.936    -5.277     1.308   5.207E-01      16.042
   16   16 S    10     5.479    -6.077     1.326   5.207E-01      16.045
   17    8 O     8    -5.687     0.419    -1.261   2.535E-01       8.603
   18    8 O     8    -5.656     0.234     4.947   2.535E-01       8.604
   19    8 O     8    -5.681     0.476     1.818   2.535E-01       8.624
   20    8 O     8    -5.677     0.165    -4.392   2.535E-01       8.619
   21    8 O     8     5.716    -0.424     1.324   2.535E-01       8.624
   22    8 O     8     5.727    -0.306    -4.890   2.535E-01       8.676
   23    8 O     8     5.697    -0.440    -1.764   2.535E-01       8.636
   24    8 O     8     5.701    -0.106     4.383   2.535E-01       8.669
   25    1 H     4    -6.201    -0.394    -1.319   8.000E-01       0.819
   26    1 H     4    -5.153     1.052     4.874   8.000E-01       0.818
   27    1 H     4    -6.536     0.892     1.657   8.000E-01       0.813
   28    1 H     4    -4.842    -0.299    -4.516   8.000E-01       0.814
   29    1 H     4     6.137     0.436     1.432   8.000E-01       0.813
   30    1 H     4     5.577    -1.236    -4.679   8.000E-01       0.803
   31    1 H     4     6.572    -0.790    -1.560   8.000E-01       0.810
   32    1 H     4     5.030     0.589     4.360   8.000E-01       0.796
   33    8 O     8    -3.528     1.516    -3.163   2.535E-01       8.643
   34    8 O     8    -7.830    -0.873     3.022   2.535E-01       8.644
   35    8 O     8    -3.556    -1.004     3.382   2.535E-01       8.618
   36    8 O     8    -7.815     1.606    -2.811   2.535E-01       8.621
   37    8 O     8    -6.871    -2.049    -5.830   2.535E-01       8.639
   38    8 O     8    -4.436     2.685     0.350   2.535E-01       8.632
   39    8 O     8    -4.226    -1.606     0.093   2.535E-01       8.627
   40    8 O     8    -7.088     2.242    -6.187   2.535E-01       8.628
   41    8 O     8     3.503    -1.562     3.251   2.535E-01       8.666
   42    8 O     8     7.814     0.936    -3.035   2.535E-01       8.645
   43    8 O     8     3.526     0.858    -3.501   2.535E-01       8.642
   44    8 O     8     7.795    -1.718     2.919   2.535E-01       8.620
   45    8 O     8     6.803     2.065     5.830   2.535E-01       8.639
   46    8 O     8     4.430    -2.653    -0.307   2.535E-01       8.635
   47    8 O     8     4.304     1.623     0.039   2.535E-01       8.629
   48    8 O     8     7.097    -2.215     6.221   2.535E-01       8.633
   49    8 O     8    -5.360     3.240    -1.612   2.535E-01       8.602
   50    8 O     8    -6.045    -2.565     4.614   2.535E-01       8.597
   51    8 O     8    -5.439    -2.464     1.774   2.535E-01       8.622
   52    8 O     8    -5.955     3.086    -4.446   2.535E-01       8.617
   53    8 O     8    -8.535    -0.192     5.038   2.535E-01       8.599
   54    8 O     8    -2.795     0.798    -1.172   2.535E-01       8.600
   55    8 O     8    -2.802     0.314     1.737   2.535E-01       8.623
   56    8 O     8    -8.556     0.394    -4.542   2.535E-01       8.618
   57    8 O     8     5.333    -3.219     1.660   2.535E-01       8.598
   58    8 O     8     5.906     2.543    -4.639   2.535E-01       8.596
   59    8 O     8     5.272     2.461    -1.802   2.535E-01       8.613
   60    8 O     8     5.833    -3.041     4.569   2.535E-01       8.622
   61    8 O     8     8.551     0.292    -5.054   2.535E-01       8.597
   62    8 O     8     2.829    -0.772     1.265   2.535E-01       8.594
   63    8 O     8     2.834    -0.205    -1.660   2.535E-01       8.604
   64    8 O     8     8.563    -0.402     4.564   2.535E-01       8.614
   65    6 C     8    -2.603     1.151    -2.376   8.792E-01       5.421
   66    6 C     8    -8.744    -0.544     3.837   8.792E-01       5.420
   67    6 C     8    -2.617    -0.495     2.701   8.792E-01       5.424
   68    6 C     8    -8.747     1.143    -3.532   8.792E-01       5.426
   69    6 C     8    -6.489    -2.869     5.765   8.792E-01       5.422
   70    6 C     8    -4.871     3.538    -0.479   8.792E-01       5.421
   71    6 C     8    -4.716    -2.583     0.735   8.792E-01       5.423
   72    6 C     8    -6.647     3.214    -5.505   8.792E-01       5.424
   73    6 C     8     2.599    -1.175     2.445   8.792E-01       5.423
   74    6 C     8     8.740     0.607    -3.838   8.792E-01       5.421
   75    6 C     8     2.608     0.464    -2.719   8.792E-01       5.431
   76    6 C     8     8.738    -1.203     3.589   8.792E-01       5.423
   77    6 C     8     6.392     2.874    -5.766   8.792E-01       5.419
   78    6 C     8     4.854    -3.513     0.520   8.792E-01       5.424
   79    6 C     8     4.676     2.593    -0.686   8.792E-01       5.423
   80    6 C     8     6.600    -3.185     5.573   8.792E-01       5.424
   81    6 C     8    -1.220     1.118    -2.852   8.792E-01       5.939
   82    6 C     8   -10.137    -0.552     3.393   8.792E-01       5.939
   83    6 C     8    -1.236    -0.866     2.999   8.792E-01       5.941
   84    6 C     8   -10.135     1.489    -3.221   8.792E-01       5.939
   85    6 C     8     4.204     6.411    -0.118   8.792E-01       5.943
   86    6 C     8    -4.826     4.961    -0.143   8.792E-01       5.941
   87    6 C     8    -4.441    -3.948     0.283   8.792E-01       5.938
   88    6 C     8     5.031    -7.387     0.257   8.792E-01       5.939
   89    6 C     8     1.204    -1.184     2.879   8.792E-01       5.939
   90    6 C     8    10.127     0.565    -3.372   8.792E-01       5.942
   91    6 C     8     1.220     0.800    -3.010   8.792E-01       5.940
   92    6 C     8    10.121    -1.541     3.268   8.792E-01       5.938
   93    6 C     8    -4.274    -6.404     0.143   8.792E-01       5.944
   94    6 C     8     4.810    -4.933     0.181   8.792E-01       5.944
   95    6 C     8     4.410     3.958    -0.238   8.792E-01       5.942
   96    6 C     8    -5.059     7.415    -0.209   8.792E-01       5.942
   97    6 C     8    -0.697     1.598    -4.020   8.792E-01       5.984
   98    6 C     8     0.049     9.640    -3.957   8.792E-01       5.984
   99    6 C     8    -0.755    -1.657     4.004   8.792E-01       5.976
  100    6 C     8     1.328    -9.877     4.077   8.792E-01       5.983
  101    6 C     8     3.741     5.786     1.005   8.792E-01       5.982
  102    6 C     8    -4.267     5.576     0.941   8.792E-01       5.982
  103    6 C     8    -3.814    -4.373    -0.854   8.792E-01       5.983
  104    6 C     8     4.413    -6.945    -0.879   8.792E-01       5.983
  105    6 C     8     0.635    -1.842     3.934   8.792E-01       5.967
  106    6 C     8    -0.064    -9.695     4.009   8.792E-01       5.984
  107    6 C     8     0.696     1.436    -4.102   8.792E-01       5.954
  108    6 C     8    -1.348     9.785    -4.011   8.792E-01       5.983
  109    6 C     8    -3.725    -5.772    -0.937   8.792E-01       5.981
  110    6 C     8     4.292    -5.546    -0.925   8.792E-01       5.982
  111    6 C     8     3.854     4.387     0.935   8.792E-01       5.983
  112    6 C     8    -4.392     6.975     0.899   8.792E-01       5.982
  113    1 H     4    -1.305     2.071    -4.777   8.000E-01       0.949
  114    1 H     4   -10.080    -1.543     1.487   8.000E-01       0.949
  115    1 H     4    -1.395    -2.097     4.755   8.000E-01       0.947
  116    1 H     4   -10.029     2.388    -1.273   8.000E-01       0.951
  117    1 H     4     3.327     6.328     1.842   8.000E-01       0.949
  118    1 H     4    -3.775     5.025     1.729   8.000E-01       0.947
  119    1 H     4    -3.434    -3.687    -1.597   8.000E-01       0.949
  120    1 H     4     4.060    -7.619    -1.646   8.000E-01       0.950
  121    1 H     4     1.200    -2.466     4.609   8.000E-01       0.942
  122    1 H     4    10.066     1.468    -1.422   8.000E-01       0.952
  123    1 H     4     1.302     1.766    -4.933   8.000E-01       0.934
  124    1 H     4    -1.973     9.436    -4.820   8.000E-01       0.951
  125    1 H     4    -3.265    -6.312    -1.753   8.000E-01       0.950
  126    1 H     4     3.834    -4.994    -1.733   8.000E-01       0.949
  127    1 H     4     3.539     3.705     1.711   8.000E-01       0.945
  128    1 H     4    -4.010     7.648     1.652   8.000E-01       0.952
  129   16 S    10     3.086    -0.375     6.064   5.207E-01      15.446
  130    8 O     8     1.809    -0.907    -5.785   2.535E-01       8.273
  131    8 O     8     3.017     0.986     5.403   2.535E-01       8.300
 *******************************************************************************
 DE(K)                   0.000E+00  ENERGY LEVEL SHIFTING        0.00000
 TOTAL ENERGY -1.4671483337447E+04  CONVERGENCE ON ENER       -6.106E-09
 KIN. ENERGY   1.4642379135403E+04  VIR. COEFF.           1.03232942E+00
 N. OF SCF CYCLES               20  FERMI ENERGY              -0.237E+00
 WEIGHT OF F(I) IN F(I+1)      80
 SHRINK. FACT.(MONKH.)     2  2  2  SHRINKING FACTOR(GILAT NET)        2
 NUMBER OF K POINTS IN THE IBZ   8  CELL VOLUME (A.U.)      21665.356235
 *******************************************************************************

 GCALCO - MAX INDICES DIRECT LATTICE VECTOR    16    16    12
 NO.OF VECTORS CREATED 6999 STARS 3500 RMAX   330.58371 BOHR
 TTTTTTTTTTTTTTTTTTTTTTTTTTTTTT gordsh1     TELAPSE        0.08 TCPU        0.07

 MATRIX SIZE: P(G) 6108366, F(G)  572376, P(G) IRR 3058864, F(G) IRR  574756
 MAX G-VECTOR INDEX FOR 1- AND 2-ELECTRON INTEGRALS  73


 CAPPA:IS1  2;IS2  2;IS3  2; K PTS MONK NET   8; SYMMOPS:K SPACE   2;G SPACE   1

 *******************************************************************************
 *                                                                             *
 *                              T O P O N D  2 0 2 1                                                                *
 *                                                                             *
 *           AN ELECTRON DENSITY TOPOLOGICAL ANALYSIS PROGRAM FOR              *
 *                 SYSTEMS PERIODIC IN N (N=0-3) DIMENSIONS                    *
 *                                                                             *
 *               USER MANUAL BY CARLO GATTI AND SILVIA CASASSA                 *
 *                                                                             *
 *            CNR-ISTM, ISTITUTO DI SCIENZE E TECNOLOGIE MOLECOLARI            *
 *                   VIA GOLGI 19  - I-20133 MILANO - ITALIA                   *
 *                     E-MAIL: c.gatti@istm.cnr.it                             *
 *                                                                             *
 *******************************************************************************

  TOPOND PARAMETER 

  LIM016 [INF24]        =       1000
  LIM015 [INF20]        =        994
  LIM035 [LIM016*INF5]  =    3500000
  NTOMAX [LIM016*INF5]  =    3500000
  INF79  [INF79]        =       6999
  MAXGSTAR [INF2*INF5]  =        384

 *******************************************************************************
 *******************************************************************************
 *                                                                             *
 *               TOPOND GENERALISATION TO F AND G ATOMIC ORBITALS              *
 *                                                                             *
 *                     BY ALESSANDRO COSSARD, JACQUES DESMARAIS                *
 *                            AND ALESSANDRO ERBA                              *
 *                                                                             *
 *      PLEASE CITE: A. Cossard, J. K. Desmarais, S.Casassa, C. Gatti and      *
 *            A. Erba, J. Phys. Chem. Lett., 12, 1862-1868 (2021)              *
 *                                                                             *
 *******************************************************************************

CRYSTAL INFORMATION ON THE REFERENCE SYSTEM:

 DIRECT LATTICE VECTOR COMPONENTS (BOHR)
       -22.66015   22.67702   11.82981
        22.63149  -22.61838   11.68724
        20.27260   20.22992  -11.72848

 LATTICE PARAMETERS  (BOHR AND DEGREES) - PRIMITIVE CELL
        A           B           C        ALPHA        BETA       GAMMA       VOLUME
    34.17125    34.06416    30.94810    97.40347    97.57299   139.67985 21578.87776
 *******************************************************************************
 N. OF ATOMS PER CELL      131  COULOMB OVERLAP TOL         (T1) 10** -7
 NUMBER OF SHELLS          994  COULOMB PENETRATION TOL     (T2) 10** -7
 NUMBER OF AO             2210  EXCHANGE OVERLAP TOL        (T3) 10** -7
 N. OF ELECTRONS PER CELL   960 EXCHANGE PSEUDO OVP (F(G))  (T4) 10** -9
 CORE ELECTRONS PER CELL   414  EXCHANGE PSEUDO OVP (P(G))  (T5) 10**-30
 N. OF SYMMETRY OPERATORS    1  POLE ORDER IN MONO ZONE                4
 *******************************************************************************
  ATOM  SHEL    X(AU)     Y(AU)     Z(AU)
 *******************************************************************************
   21 SC  11   -10.713     3.135    -5.550
   21 SC  11   -10.754    -1.919     6.190
   21 SC  11   -13.315     0.166   -11.262
   21 SC  11    -8.086     1.040     0.524
   21 SC  11    10.679    -3.141     5.667
   21 SC  11    10.682     1.909    -6.168
   21 SC  11    13.345    -0.097    11.265
   21 SC  11     8.110    -0.983    -0.397
   16 S   10     0.001     0.783    -3.425
   16 S   10    -1.162    20.517    -3.326
   16 S   10     0.047    -0.611     3.616
   16 S   10     1.150   -20.459     3.344
   16 S   10     9.084     9.980    -2.479
   16 S   10   -10.478    11.532    -2.380
   16 S   10    -9.328    -9.972     2.471
   16 S   10    10.353   -11.483     2.505
    8 O    8   -10.746     0.791    -2.383
    8 O    8   -10.688     0.442     9.348
    8 O    8   -10.735     0.900     3.435
    8 O    8   -10.728     0.313    -8.299
    8 O    8    10.801    -0.802     2.502
    8 O    8    10.823    -0.579    -9.240
    8 O    8    10.765    -0.831    -3.333
    8 O    8    10.774    -0.200     8.282
    1 H    4   -11.718    -0.744    -2.493
    1 H    4    -9.738     1.989     9.210
    1 H    4   -12.350     1.685     3.131
    1 H    4    -9.150    -0.566    -8.533
    1 H    4    11.597     0.823     2.705
    1 H    4    10.539    -2.336    -8.842
    1 H    4    12.419    -1.493    -2.949
    1 H    4     9.504     1.113     8.239
    8 O    8    -6.667     2.866    -5.978
    8 O    8   -14.797    -1.649     5.712
    8 O    8    -6.720    -1.896     6.391
    8 O    8   -14.768     3.034    -5.312
    8 O    8   -12.984    -3.872   -11.017
    8 O    8    -8.383     5.075     0.662
    8 O    8    -7.986    -3.036     0.176
    8 O    8   -13.394     4.237   -11.691
    8 O    8     6.620    -2.951     6.143
    8 O    8    14.766     1.768    -5.736
    8 O    8     6.664     1.622    -6.616
    8 O    8    14.731    -3.246     5.516
    8 O    8    12.856     3.902    11.016
    8 O    8     8.372    -5.013    -0.581
    8 O    8     8.132     3.067     0.073
    8 O    8    13.411    -4.186    11.756
    8 O    8   -10.128     6.122    -3.047
    8 O    8   -11.423    -4.848     8.719
    8 O    8   -10.277    -4.656     3.351
    8 O    8   -11.252     5.832    -8.402
    8 O    8   -16.129    -0.363     9.521
    8 O    8    -5.282     1.508    -2.214
    8 O    8    -5.296     0.594     3.283
    8 O    8   -16.168     0.745    -8.584
    8 O    8    10.078    -6.083     3.138
    8 O    8    11.161     4.806    -8.767
    8 O    8     9.962     4.650    -3.405
    8 O    8    11.023    -5.748     8.634
    8 O    8    16.159     0.552    -9.551
    8 O    8     5.346    -1.459     2.390
    8 O    8     5.355    -0.388    -3.136
    8 O    8    16.182    -0.760     8.624
    6 C    8    -4.919     2.175    -4.490
    6 C    8   -16.524    -1.029     7.250
    6 C    8    -4.945    -0.936     5.104
    6 C    8   -16.529     2.159    -6.675
    6 C    8   -12.262    -5.422    10.894
    6 C    8    -9.204     6.686    -0.905
    6 C    8    -8.911    -4.881     1.389
    6 C    8   -12.560     6.073   -10.402
    6 C    8     4.911    -2.220     4.620
    6 C    8    16.515     1.148    -7.253
    6 C    8     4.928     0.876    -5.138
    6 C    8    16.512    -2.274     6.783
    6 C    8    12.079     5.431   -10.895
    6 C    8     9.173    -6.639     0.983
    6 C    8     8.836     4.900    -1.296
    6 C    8    12.472    -6.019    10.532
    6 C    8    -2.305     2.113    -5.390
    6 C    8   -19.157    -1.044     6.413
    6 C    8    -2.336    -1.637     5.668
    6 C    8   -19.153     2.813    -6.087
    6 C    8     7.944    12.115    -0.224
    6 C    8    -9.120     9.376    -0.271
    6 C    8    -8.392    -7.461     0.535
    6 C    8     9.508   -13.959     0.485
    6 C    8     2.276    -2.237     5.440
    6 C    8    19.137     1.068    -6.372
    6 C    8     2.305     1.512    -5.688
    6 C    8    19.126    -2.913     6.175
    6 C    8    -8.076   -12.102     0.271
    6 C    8     9.089    -9.322     0.343
    6 C    8     8.334     7.480    -0.450
    6 C    8    -9.561    14.013    -0.395
    6 C    8    -1.317     3.019    -7.596
    6 C    8     0.092    18.217    -7.478
    6 C    8    -1.428    -3.131     7.567
    6 C    8     2.510   -18.665     7.704
    6 C    8     7.069    10.933     1.898
    6 C    8    -8.064    10.537     1.779
    6 C    8    -7.208    -8.263    -1.614
    6 C    8     8.339   -13.124    -1.661
    6 C    8     1.200    -3.482     7.433
    6 C    8    -0.120   -18.320     7.576
    6 C    8     1.315     2.714    -7.753
    6 C    8    -2.547    18.491    -7.579
    6 C    8    -7.039   -10.908    -1.771
    6 C    8     8.111   -10.480    -1.747
    6 C    8     7.283     8.290     1.766
    6 C    8    -8.300    13.180     1.700
    1 H    4    -2.466     3.913    -9.027
    1 H    4   -19.049    -2.916     2.811
    1 H    4    -2.636    -3.962     8.986
    1 H    4   -18.953     4.513    -2.405
    1 H    4     6.288    11.958     3.482
    1 H    4    -7.133     9.496     3.268
    1 H    4    -6.489    -6.967    -3.018
    1 H    4     7.673   -14.397    -3.111
    1 H    4     2.267    -4.660     8.710
    1 H    4    19.022     2.774    -2.688
    1 H    4     2.460     3.336    -9.321
    1 H    4    -3.728    17.832    -9.109
    1 H    4    -6.171   -11.927    -3.312
    1 H    4     7.245    -9.437    -3.274
    1 H    4     6.688     7.001     3.233
    1 H    4    -7.577    14.453     3.122
   16 S   10     5.831    -0.708    11.459
    8 O    8     3.418    -1.713   -10.931
    8 O    8     5.701     1.863    10.210
 *******************************************************************************
 DE(K)                  0.000E+00  CONVERGENCE ON EIGENVALUES   10**-20
 WEIGHT OF F(I) IN F(I+1)     80%  CONVERGENCE ON ENERGY        10**- 7
 TOTAL ENERGY     -1.46714833E+04  FERMI ENERGY              -2.372E-01
 KIN. ENERGY       1.46423791E+04  VIR. COEFF.           1.03232942E+00
 SHRINK. FACT.(MONKH.)    2  2  2  STARS FOR FOURIER EXP. OF E(K)     1
 SHRINKING FACTOR (GILAT NET)   2  NUMBER OF K POINTS IN THE IBZ      8
 CELL VOLUME (A.U.)       21665.356N. OF SCF CYCLES                  20
 ENERGY LEVEL SHIFTING    0.00000
 *******************************************************************************

 NEIGHBORS OF THE NON-EQUIVALENT ATOMS

 N = NUMBER OF NEIGHBORS AT DISTANCE R
    ATOM  N     R/ANG      R/AU   NEIGHBORS (ATOM LABELS AND CELL INDICES)

   1 SC   1     2.0845     3.9392  17 O    0 0 0
   1 SC   1     2.0851     3.9403  20 O    0 0 0
   1 SC   1     2.0853     3.9407  49 O    0 0 0
   1 SC   1     2.0969     3.9627  52 O    0 0 0
   1 SC   1     2.1505     4.0639  36 O    0 0 0
   1 SC   1     2.1577     4.0774  33 O    0 0 0
   1 SC   1     2.6478     5.0037  28 H    0 0 0

   2 SC   1     2.0782     3.9272  50 O    0 0 0
   2 SC   1     2.0859     3.9418  19 O    0 0 0
   2 SC   1     2.0871     3.9441  18 O    0 0 0
   2 SC   1     2.1015     3.9713  51 O    0 0 0
   2 SC   1     2.1375     4.0392  35 O    0 0 0
   2 SC   1     2.1590     4.0799  34 O    0 0 0
   2 SC   1     2.6403     4.9894  27 H    0 0 0

   3 SC   1     2.0824     3.9352  20 O    0 0 0
   3 SC   1     2.0864     3.9427  18 O   -1-1 0
   3 SC   1     2.0891     3.9479  53 O   -1-1 0
   3 SC   1     2.0937     3.9565  56 O    0 0 0
   3 SC   1     2.1478     4.0587  37 O    0 0 0
   3 SC   1     2.1665     4.0942  40 O    0 0 0
   3 SC   1     2.6632     5.0326  28 H    0 0 0

   4 SC   1     2.0842     3.9386  19 O    0 0 0
   4 SC   1     2.0888     3.9473  54 O    0 0 0
   4 SC   1     2.0895     3.9486  17 O    0 0 0
   4 SC   1     2.0899     3.9494  55 O    0 0 0
   4 SC   1     2.1419     4.0476  38 O    0 0 0
   4 SC   1     2.1655     4.0922  39 O    0 0 0
   4 SC   1     2.6670     5.0398  27 H    0 0 0

   5 SC   1     2.0775     3.9259  57 O    0 0 0
   5 SC   1     2.0834     3.9370  24 O    0 0 0
   5 SC   1     2.0834     3.9371  21 O    0 0 0
   5 SC   1     2.0980     3.9647  60 O    0 0 0
   5 SC   1     2.1466     4.0565  44 O    0 0 0
   5 SC   1     2.1651     4.0914  41 O    0 0 0
   5 SC   1     2.6633     5.0329  29 H    0 0 0

   6 SC   1     2.0751     3.9214  58 O    0 0 0
   6 SC   1     2.0868     3.9435  23 O    0 0 0
   6 SC   1     2.0930     3.9553  22 O    0 0 0
   6 SC   1     2.0947     3.9584  59 O    0 0 0
   6 SC   1     2.1447     4.0529  43 O    0 0 0
   6 SC   1     2.1744     4.1090  42 O    0 0 0
   6 SC   1     2.6434     4.9953  31 H    0 0 0

   7 SC   1     2.0808     3.9322  64 O    0 0 0
   7 SC   1     2.0845     3.9392  24 O    0 0 0
   7 SC   1     2.0871     3.9441  61 O    1 1 0
   7 SC   1     2.1007     3.9697  22 O    1 1 0
   7 SC   1     2.1361     4.0367  45 O    0 0 0
   7 SC   1     2.1795     4.1187  48 O    0 0 0
   7 SC   1     2.6150     4.9415  30 H    1 1 0

   8 SC   1     2.0796     3.9299  63 O    0 0 0
   8 SC   1     2.0924     3.9541  62 O    0 0 0
   8 SC   1     2.0956     3.9601  21 O    0 0 0
   8 SC   1     2.0963     3.9615  23 O    0 0 0
   8 SC   1     2.1392     4.0426  46 O    0 0 0
   8 SC   1     2.1576     4.0774  47 O    0 0 0
   8 SC   1     2.6488     5.0055  29 H    0 0 0

   9 S    1     1.7511     3.3091  81 C    0 0 0
   9 S    1     1.7517     3.3103  91 C    0 0 0
   9 S    1     2.5998     4.9128  97 C    0 0 0
   9 S    1     2.6023     4.9176 107 C    0 0 0
   9 S    1     2.7604     5.2163  75 C    0 0 0
   9 S    1     2.7640     5.2231  65 C    0 0 0
   9 S    1     2.8937     5.4682  54 O    0 0 0

  10 S    1     1.7488     3.3048  82 C    0 0 1
  10 S    1     1.7494     3.3059  92 C    0-1 0
  10 S    1     2.5983     4.9100  98 C    0 0 0
  10 S    1     2.5985     4.9105 108 C    0 0 0
  10 S    1     2.7544     5.2050  76 C    0-1 0
  10 S    1     2.7589     5.2136  66 C    0 0 1
  10 S    1     2.8898     5.4609  53 O    0 0 1

  11 S    1     1.7498     3.3067  89 C    0 0 0
  11 S    1     1.7506     3.3082  83 C    0 0 0
  11 S    1     2.5995     4.9123  99 C    0 0 0
  11 S    1     2.5999     4.9132 105 C    0 0 0
  11 S    1     2.7619     5.2192  67 C    0 0 0
  11 S    1     2.7624     5.2202  73 C    0 0 0
  11 S    1     2.9037     5.4873  55 O    0 0 0

  12 S    1     1.7502     3.3074  84 C    0 1 0
  12 S    1     1.7520     3.3108  90 C    0 0-1
  12 S    1     2.5968     4.9073 100 C    0 0 0
  12 S    1     2.5977     4.9089 106 C    0 0 0
  12 S    1     2.7630     5.2213  74 C    0 0-1
  12 S    1     2.7650     5.2251  68 C    0 1 0
  12 S    1     2.8832     5.4485  61 O    0 0-1

  13 S    1     1.7492     3.3055  95 C    0 0 0
  13 S    1     1.7508     3.3086  85 C    0 0 0
  13 S    1     2.5989     4.9112 111 C    0 0 0
  13 S    1     2.5993     4.9120 101 C    0 0 0
  13 S    1     2.7582     5.2122  69 C    0 0 1
  13 S    1     2.7631     5.2216  79 C    0 0 0
  13 S    1     2.8751     5.4332  50 O    0 0 1

  14 S    1     1.7502     3.3073  96 C    0 0 0
  14 S    1     1.7506     3.3082  86 C    0 0 0
  14 S    1     2.5982     4.9098 112 C    0 0 0
  14 S    1     2.5987     4.9108 102 C    0 0 0
  14 S    1     2.7638     5.2228  80 C    0-1 0
  14 S    1     2.7638     5.2229  70 C    0 0 0
  14 S    1     2.8904     5.4620  49 O    0 0 0

  15 S    1     1.7497     3.3065  87 C    0 0 0
  15 S    1     1.7509     3.3087  93 C    0 0 0
  15 S    1     2.5983     4.9100 103 C    0 0 0
  15 S    1     2.5986     4.9107 109 C    0 0 0
  15 S    1     2.7631     5.2214  71 C    0 0 0
  15 S    1     2.7637     5.2226  77 C    0 0-1
  15 S    1     2.8953     5.4714  51 O    0 0 0

  16 S    1     1.7492     3.3055  88 C    0 0 0
  16 S    1     1.7505     3.3080  94 C    0 0 0
  16 S    1     2.5979     4.9094 104 C    0 0 0
  16 S    1     2.5988     4.9110 110 C    0 0 0
  16 S    1     2.7584     5.2126  78 C    0 0 0
  16 S    1     2.7596     5.2150  72 C    0 1 0
  16 S    1     2.8808     5.4439  57 O    0 0 0

  17 O    1     0.9634     1.8205  25 H    0 0 0
  17 O    1     2.0845     3.9392   1 SC   0 0 0
  17 O    1     2.0895     3.9486   4 SC   0 0 0
  17 O    1     2.8406     5.3680  39 O    0 0 0
  17 O    1     2.8615     5.4074  49 O    0 0 0
  17 O    1     2.8880     5.4575  36 O    0 0 0
  17 O    1     2.9180     5.5142  54 O    0 0 0

  18 O    1     0.9636     1.8209  26 H    0 0 0
  18 O    1     2.0864     3.9427   3 SC   1 1 0
  18 O    1     2.0871     3.9441   2 SC   0 0 0
  18 O    1     2.8232     5.3351  40 O    1 1 0
  18 O    1     2.8457     5.3775  50 O    0 0 0
  18 O    1     2.8966     5.4739  35 O    0 0 0
  18 O    1     2.9119     5.5027  53 O    0 0 0

  19 O    1     0.9639     1.8215  27 H    0 0 0
  19 O    1     2.0842     3.9386   4 SC   0 0 0
  19 O    1     2.0859     3.9418   2 SC   0 0 0
  19 O    1     2.8089     5.3081  34 O    0 0 0
  19 O    1     2.8842     5.4504  55 O    0 0 0
  19 O    1     2.9298     5.5365  38 O    0 0 0
  19 O    1     2.9501     5.5750  51 O    0 0 0

  20 O    1     0.9639     1.8215  28 H    0 0 0
  20 O    1     2.0824     3.9352   3 SC   0 0 0
  20 O    1     2.0851     3.9403   1 SC   0 0 0
  20 O    1     2.8202     5.3295  33 O    0 0 0
  20 O    1     2.8918     5.4647  56 O    0 0 0
  20 O    1     2.8977     5.4758  37 O    0 0 0
  20 O    1     2.9343     5.5451  52 O    0 0 0

  21 O    1     0.9639     1.8214  29 H    0 0 0
  21 O    1     2.0834     3.9371   5 SC   0 0 0
  21 O    1     2.0956     3.9601   8 SC   0 0 0
  21 O    1     2.7996     5.2906  47 O    0 0 0
  21 O    1     2.8409     5.3684  57 O    0 0 0
  21 O    1     2.9083     5.4959  62 O    0 0 0
  21 O    1     2.9229     5.5235  44 O    0 0 0

  22 O    1     0.9652     1.8239  30 H    0 0 0
  22 O    1     2.0930     3.9553   6 SC   0 0 0
  22 O    1     2.1007     3.9697   7 SC  -1-1 0
  22 O    1     2.7313     5.1615  48 O   -1-1 0
  22 O    1     2.8509     5.3875  43 O    0 0 0
  22 O    1     2.8663     5.4166  58 O    0 0 0
  22 O    1     2.8909     5.4629  61 O    0 0 0

  23 O    1     0.9644     1.8225  31 H    0 0 0
  23 O    1     2.0868     3.9435   6 SC   0 0 0
  23 O    1     2.0963     3.9615   8 SC   0 0 0
  23 O    1     2.8268     5.3419  42 O    0 0 0
  23 O    1     2.8746     5.4321  63 O    0 0 0
  23 O    1     2.9320     5.5407  59 O    0 0 0
  23 O    1     2.9363     5.5488  46 O    0 0 0

  24 O    1     0.9665     1.8264  32 H    0 0 0
  24 O    1     2.0834     3.9370   5 SC   0 0 0
  24 O    1     2.0845     3.9392   7 SC   0 0 0
  24 O    1     2.8319     5.3515  45 O    0 0 0
  24 O    1     2.8692     5.4220  41 O    0 0 0
  24 O    1     2.8829     5.4478  64 O    0 0 0
  24 O    1     2.9447     5.5646  60 O    0 0 0

  25 H    1     0.9634     1.8205  17 O    0 0 0
  25 H    1     2.6670     5.0399   1 SC   0 0 0
  25 H    1     2.6711     5.0476   4 SC   0 0 0
  25 H    1     2.7140     5.1288  39 O    0 0 0
  25 H    1     2.9712     5.6148  36 O    0 0 0
  25 H    1     3.1669     5.9846  20 O    0 0 0
  25 H    1     3.2590     6.1586  27 H    0 0 0

  26 H    1     0.9636     1.8209  18 O    0 0 0
  26 H    1     2.6661     5.0381   3 SC   1 1 0
  26 H    1     2.6686     5.0428   2 SC   0 0 0
  26 H    1     2.6847     5.0734  40 O    1 1 0
  26 H    1     3.0006     5.6703  35 O    0 0 0
  26 H    1     3.1545     5.9611  19 O    0 0 0
  26 H    1     3.3361     6.3043  20 O    1 1 0

  27 H    1     0.9639     1.8215  19 O    0 0 0
  27 H    1     2.5792     4.8740  34 O    0 0 0
  27 H    1     2.6403     4.9894   2 SC   0 0 0
  27 H    1     2.6670     5.0398   4 SC   0 0 0
  27 H    1     3.0551     5.7733  38 O    0 0 0
  27 H    1     3.0758     5.8123  17 O    0 0 0
  27 H    1     3.2590     6.1586  25 H    0 0 0

  28 H    1     0.9639     1.8215  20 O    0 0 0
  28 H    1     2.6175     4.9464  33 O    0 0 0
  28 H    1     2.6478     5.0037   1 SC   0 0 0
  28 H    1     2.6632     5.0326   3 SC   0 0 0
  28 H    1     2.9844     5.6396  37 O    0 0 0
  28 H    1     3.1280     5.9111  18 O   -1-1 0
  28 H    1     3.3417     6.3149  26 H   -1-1 0

  29 H    1     0.9639     1.8214  21 O    0 0 0
  29 H    1     2.5908     4.8958  47 O    0 0 0
  29 H    1     2.6488     5.0055   8 SC   0 0 0
  29 H    1     2.6633     5.0329   5 SC   0 0 0
  29 H    1     3.0316     5.7289  24 O    0 0 0
  29 H    1     3.0985     5.8554  44 O    0 0 0
  29 H    1     3.1345     5.9233  32 H    0 0 0

  30 H    1     0.9652     1.8239  22 O    0 0 0
  30 H    1     2.4005     4.5364  48 O   -1-1 0
  30 H    1     2.6150     4.9415   7 SC  -1-1 0
  30 H    1     2.6559     5.0189   6 SC   0 0 0
  30 H    1     3.0243     5.7150  23 O    0 0 0
  30 H    1     3.1172     5.8907 129 S   -1-1 0
  30 H    1     3.1315     5.9176  80 C   -1-1 0

  31 H    1     0.9644     1.8225  23 O    0 0 0
  31 H    1     2.5875     4.8897  42 O    0 0 0
  31 H    1     2.6434     4.9953   6 SC   0 0 0
  31 H    1     2.6639     5.0340   8 SC   0 0 0
  31 H    1     3.0310     5.7278  21 O    0 0 0
  31 H    1     3.1028     5.8635  46 O    0 0 0
  31 H    1     3.2624     6.1651  29 H    0 0 0

  32 H    1     0.9665     1.8264  24 O    0 0 0
  32 H    1     2.3016     4.3494 131 O    0 0 0
  32 H    1     2.6651     5.0363   7 SC   0 0 0
  32 H    1     2.7031     5.1082   5 SC   0 0 0
  32 H    1     2.7356     5.1696  45 O    0 0 0
  32 H    1     2.7589     5.2135 129 S    0 0 0
  32 H    1     2.8610     5.4066  41 O    0 0 0

  33 O    1     1.2685     2.3971  65 C    0 0 0
  33 O    1     2.1577     4.0774   1 SC   0 0 0
  33 O    1     2.2405     4.2339  54 O    0 0 0
  33 O    1     2.3627     4.4649  81 C    0 0 0
  33 O    1     2.6175     4.9464  28 H    0 0 0
  33 O    1     2.8022     5.2955 113 H    0 0 0
  33 O    1     2.8202     5.3295  20 O    0 0 0

  34 O    1     1.2670     2.3944  66 C    0 0 0
  34 O    1     2.1590     4.0799   2 SC   0 0 0
  34 O    1     2.2412     4.2353  53 O    0 0 0
  34 O    1     2.3586     4.4571  82 C    0 0 0
  34 O    1     2.5792     4.8740  27 H    0 0 0
  34 O    1     2.8051     5.3010 114 H    0 0 0
  34 O    1     2.8089     5.3081  19 O    0 0 0

  35 O    1     1.2666     2.3935  67 C    0 0 0
  35 O    1     2.1375     4.0392   2 SC   0 0 0
  35 O    1     2.2382     4.2296  55 O    0 0 0
  35 O    1     2.3551     4.4504  83 C    0 0 0
  35 O    1     2.7840     5.2610 115 H    0 0 0
  35 O    1     2.8744     5.4319  51 O    0 0 0
  35 O    1     2.8966     5.4739  18 O    0 0 0

  36 O    1     1.2662     2.3927  68 C    0 0 0
  36 O    1     2.1505     4.0639   1 SC   0 0 0
  36 O    1     2.2393     4.2317  56 O    0 0 0
  36 O    1     2.3589     4.4577  84 C    0 0 0
  36 O    1     2.8073     5.3050 116 H    0 0 0
  36 O    1     2.8858     5.4533  52 O    0 0 0
  36 O    1     2.8880     5.4575  17 O    0 0 0

  37 O    1     1.2667     2.3936  69 C   -1-1 0
  37 O    1     2.1478     4.0587   3 SC   0 0 0
  37 O    1     2.2383     4.2298  50 O   -1-1 0
  37 O    1     2.3640     4.4674  85 C   -1-1-1
  37 O    1     2.8083     5.3070 117 H   -1-1-1
  37 O    1     2.8977     5.4758  20 O    0 0 0
  37 O    1     2.9223     5.5223  53 O   -1-1 0

  38 O    1     1.2664     2.3932  70 C    0 0 0
  38 O    1     2.1419     4.0476   4 SC   0 0 0
  38 O    1     2.2389     4.2309  49 O    0 0 0
  38 O    1     2.3613     4.4622  86 C    0 0 0
  38 O    1     2.7952     5.2821 118 H    0 0 0
  38 O    1     2.9277     5.5326  54 O    0 0 0
  38 O    1     2.9298     5.5365  19 O    0 0 0

  39 O    1     1.2669     2.3942  71 C    0 0 0
  39 O    1     2.1655     4.0922   4 SC   0 0 0
  39 O    1     2.2424     4.2375  51 O    0 0 0
  39 O    1     2.3590     4.4578  87 C    0 0 0
  39 O    1     2.7140     5.1288  25 H    0 0 0
  39 O    1     2.7949     5.2815 119 H    0 0 0
  39 O    1     2.8406     5.3680  17 O    0 0 0

  40 O    1     1.2663     2.3929  72 C    0 0 0
  40 O    1     2.1665     4.0942   3 SC   0 0 0
  40 O    1     2.2418     4.2364  52 O    0 0 0
  40 O    1     2.3588     4.4574  88 C    0-1 0
  40 O    1     2.6847     5.0734  26 H   -1-1 0
  40 O    1     2.7992     5.2896 120 H    0-1 0
  40 O    1     2.8232     5.3351  18 O   -1-1 0

  41 O    1     1.2716     2.4030  73 C    0 0 0
  41 O    1     2.1651     4.0914   5 SC   0 0 0
  41 O    1     2.2414     4.2356  62 O    0 0 0
  41 O    1     2.3593     4.4583  89 C    0 0 0
  41 O    1     2.8226     5.3339 121 H    0 0 0
  41 O    1     2.8610     5.4066  32 H    0 0 0
  41 O    1     2.8692     5.4220  24 O    0 0 0

  42 O    1     1.2687     2.3974  74 C    0 0 0
  42 O    1     2.1744     4.1090   6 SC   0 0 0
  42 O    1     2.2435     4.2396  61 O    0 0 0
  42 O    1     2.3665     4.4721  90 C    0 0 0
  42 O    1     2.5875     4.8897  31 H    0 0 0
  42 O    1     2.8210     5.3310 122 H    0 0 0
  42 O    1     2.8268     5.3419  23 O    0 0 0

  43 O    1     1.2696     2.3992  75 C    0 0 0
  43 O    1     2.1447     4.0529   6 SC   0 0 0
  43 O    1     2.2366     4.2265  63 O    0 0 0
  43 O    1     2.3591     4.4580  91 C    0 0 0
  43 O    1     2.7965     5.2846 123 H    0 0 0
  43 O    1     2.8509     5.3875  22 O    0 0 0
  43 O    1     2.9156     5.5097  59 O    0 0 0

  44 O    1     1.2659     2.3922  76 C    0 0 0
  44 O    1     2.1466     4.0565   5 SC   0 0 0
  44 O    1     2.2415     4.2358  64 O    0 0 0
  44 O    1     2.3583     4.4565  92 C    0 0 0
  44 O    1     2.8205     5.3300 124 H    0 1 0
  44 O    1     2.8854     5.4527  60 O    0 0 0
  44 O    1     2.9229     5.5235  21 O    0 0 0

  45 O    1     1.2683     2.3967  77 C    1 1 0
  45 O    1     2.1361     4.0367   7 SC   0 0 0
  45 O    1     2.2350     4.2235  58 O    1 1 0
  45 O    1     2.3616     4.4628  93 C    1 1 1
  45 O    1     2.7356     5.1696  32 H    0 0 0
  45 O    1     2.7911     5.2744 125 H    1 1 1
  45 O    1     2.8319     5.3515  24 O    0 0 0

  46 O    1     1.2671     2.3945  78 C    0 0 0
  46 O    1     2.1392     4.0426   8 SC   0 0 0
  46 O    1     2.2379     4.2291  57 O    0 0 0
  46 O    1     2.3628     4.4650  94 C    0 0 0
  46 O    1     2.8050     5.3007 126 H    0 0 0
  46 O    1     2.9279     5.5330  62 O    0 0 0
  46 O    1     2.9363     5.5488  23 O    0 0 0

  47 O    1     1.2666     2.3936  79 C    0 0 0
  47 O    1     2.1576     4.0774   8 SC   0 0 0
  47 O    1     2.2421     4.2370  59 O    0 0 0
  47 O    1     2.3542     4.4488  95 C    0 0 0
  47 O    1     2.5908     4.8958  29 H    0 0 0
  47 O    1     2.7776     5.2488 127 H    0 0 0
  47 O    1     2.7996     5.2906  21 O    0 0 0

  48 O    1     1.2680     2.3962  80 C    0 0 0
  48 O    1     2.1795     4.1187   7 SC   0 0 0
  48 O    1     2.2380     4.2293  60 O    0 0 0
  48 O    1     2.3585     4.4570  96 C    0 1 0
  48 O    1     2.4005     4.5364  30 H    1 1 0
  48 O    1     2.7313     5.1615  22 O    1 1 0
  48 O    1     2.7932     5.2784 128 H    0 1 0

  49 O    1     1.2702     2.4003  70 C    0 0 0
  49 O    1     2.0853     3.9407   1 SC   0 0 0
  49 O    1     2.2389     4.2309  38 O    0 0 0
  49 O    1     2.3253     4.3942  86 C    0 0 0
  49 O    1     2.8615     5.4074  17 O    0 0 0
  49 O    1     2.8904     5.4620  14 S    0 0 0
  49 O    1     2.8996     5.4794  52 O    0 0 0

  50 O    1     1.2706     2.4010  69 C    0 0 0
  50 O    1     2.0782     3.9272   2 SC   0 0 0
  50 O    1     2.2383     4.2298  37 O    1 1 0
  50 O    1     2.3217     4.3873  85 C    0 0-1
  50 O    1     2.8457     5.3775  18 O    0 0 0
  50 O    1     2.8751     5.4332  13 S    0 0-1
  50 O    1     2.9063     5.4922  51 O    0 0 0

  51 O    1     1.2707     2.4013  71 C    0 0 0
  51 O    1     2.1015     3.9713   2 SC   0 0 0
  51 O    1     2.2424     4.2375  39 O    0 0 0
  51 O    1     2.3281     4.3994  87 C    0 0 0
  51 O    1     2.8744     5.4319  35 O    0 0 0
  51 O    1     2.8953     5.4714  15 S    0 0 0
  51 O    1     2.9063     5.4922  50 O    0 0 0

  52 O    1     1.2711     2.4021  72 C    0 0 0
  52 O    1     2.0969     3.9627   1 SC   0 0 0
  52 O    1     2.2418     4.2364  40 O    0 0 0
  52 O    1     2.3271     4.3975  88 C    0-1 0
  52 O    1     2.8858     5.4533  36 O    0 0 0
  52 O    1     2.8881     5.4577  16 S    0-1 0
  52 O    1     2.8996     5.4794  49 O    0 0 0

  53 O    1     1.2693     2.3987  66 C    0 0 0
  53 O    1     2.0891     3.9479   3 SC   1 1 0
  53 O    1     2.2412     4.2353  34 O    0 0 0
  53 O    1     2.3241     4.3918  82 C    0 0 0
  53 O    1     2.8898     5.4609  10 S    0 0-1
  53 O    1     2.9119     5.5027  18 O    0 0 0
  53 O    1     2.9223     5.5223  37 O    1 1 0

  54 O    1     1.2694     2.3988  65 C    0 0 0
  54 O    1     2.0888     3.9473   4 SC   0 0 0
  54 O    1     2.2405     4.2339  33 O    0 0 0
  54 O    1     2.3253     4.3942  81 C    0 0 0
  54 O    1     2.8937     5.4682   9 S    0 0 0
  54 O    1     2.9180     5.5142  17 O    0 0 0
  54 O    1     2.9277     5.5326  38 O    0 0 0

  55 O    1     1.2725     2.4046  67 C    0 0 0
  55 O    1     2.0899     3.9494   4 SC   0 0 0
  55 O    1     2.2382     4.2296  35 O    0 0 0
  55 O    1     2.3322     4.4072  83 C    0 0 0
  55 O    1     2.8842     5.4504  19 O    0 0 0
  55 O    1     2.9015     5.4830  39 O    0 0 0
  55 O    1     2.9037     5.4873  11 S    0 0 0

  56 O    1     1.2716     2.4029  68 C    0 0 0
  56 O    1     2.0937     3.9565   3 SC   0 0 0
  56 O    1     2.2393     4.2317  36 O    0 0 0
  56 O    1     2.3318     4.4065  84 C    0 0 0
  56 O    1     2.8764     5.4357  40 O    0 0 0
  56 O    1     2.8918     5.4647  20 O    0 0 0
  56 O    1     2.9120     5.5029  12 S    0-1 0

  57 O    1     1.2712     2.4023  78 C    0 0 0
  57 O    1     2.0775     3.9259   5 SC   0 0 0
  57 O    1     2.2379     4.2291  46 O    0 0 0
  57 O    1     2.3235     4.3908  94 C    0 0 0
  57 O    1     2.8409     5.3684  21 O    0 0 0
  57 O    1     2.8808     5.4439  16 S    0 0 0
  57 O    1     2.9368     5.5497  41 O    0 0 0

  58 O    1     1.2704     2.4007  77 C    0 0 0
  58 O    1     2.0751     3.9214   6 SC   0 0 0
  58 O    1     2.2350     4.2235  45 O   -1-1 0
  58 O    1     2.3276     4.3985  93 C    0 0 1
  58 O    1     2.8663     5.4166  22 O    0 0 0
  58 O    1     2.8990     5.4783  15 S    0 0 1
  58 O    1     2.9084     5.4961  59 O    0 0 0

  59 O    1     1.2721     2.4039  79 C    0 0 0
  59 O    1     2.0947     3.9584   6 SC   0 0 0
  59 O    1     2.2421     4.2370  47 O    0 0 0
  59 O    1     2.3304     4.4039  95 C    0 0 0
  59 O    1     2.9000     5.4801  13 S    0 0 0
  59 O    1     2.9084     5.4961  58 O    0 0 0
  59 O    1     2.9156     5.5097  43 O    0 0 0

  60 O    1     1.2716     2.4031  80 C    0 0 0
  60 O    1     2.0980     3.9647   5 SC   0 0 0
  60 O    1     2.2380     4.2293  48 O    0 0 0
  60 O    1     2.3325     4.4077  96 C    0 1 0
  60 O    1     2.8854     5.4527  44 O    0 0 0
  60 O    1     2.9098     5.4987  14 S    0 1 0
  60 O    1     2.9447     5.5646  24 O    0 0 0

  61 O    1     1.2704     2.4008  74 C    0 0 0
  61 O    1     2.0871     3.9441   7 SC  -1-1 0
  61 O    1     2.2435     4.2396  42 O    0 0 0
  61 O    1     2.3213     4.3867  90 C    0 0 0
  61 O    1     2.8832     5.4485  12 S    0 0 1
  61 O    1     2.8909     5.4629  22 O    0 0 0
  61 O    1     2.9108     5.5007  45 O   -1-1 0

  62 O    1     1.2683     2.3967  73 C    0 0 0
  62 O    1     2.0924     3.9541   8 SC   0 0 0
  62 O    1     2.2414     4.2356  41 O    0 0 0
  62 O    1     2.3269     4.3972  89 C    0 0 0
  62 O    1     2.9083     5.4959  21 O    0 0 0
  62 O    1     2.9126     5.5039  11 S    0 0 0
  62 O    1     2.9279     5.5330  46 O    0 0 0

  63 O    1     1.2731     2.4058  75 C    0 0 0
  63 O    1     2.0796     3.9299   8 SC   0 0 0
  63 O    1     2.2366     4.2265  43 O    0 0 0
  63 O    1     2.3320     4.4068  91 C    0 0 0
  63 O    1     2.8746     5.4321  23 O    0 0 0
  63 O    1     2.8960     5.4726  47 O    0 0 0
  63 O    1     2.9039     5.4876   9 S    0 0 0

  64 O    1     1.2732     2.4061  76 C    0 0 0
  64 O    1     2.0808     3.9322   7 SC   0 0 0
  64 O    1     2.2415     4.2358  44 O    0 0 0
  64 O    1     2.3249     4.3934  92 C    0 0 0
  64 O    1     2.8605     5.4055  48 O    0 0 0
  64 O    1     2.8829     5.4478  24 O    0 0 0
  64 O    1     2.8899     5.4612  10 S    0 1 0

  65 C    1     1.2685     2.3971  33 O    0 0 0
  65 C    1     1.2694     2.3988  54 O    0 0 0
  65 C    1     1.4632     2.7650  81 C    0 0 0
  65 C    1     2.5564     4.8308  97 C    0 0 0
  65 C    1     2.7640     5.2231   9 S    0 0 0
  65 C    1     2.8802     5.4428 113 H    0 0 0
  65 C    1     3.1579     5.9675   1 SC   0 0 0

  66 C    1     1.2670     2.3944  34 O    0 0 0
  66 C    1     1.2693     2.3987  53 O    0 0 0
  66 C    1     1.4622     2.7632  82 C    0 0 0
  66 C    1     2.5568     4.8316  98 C    0 0-1
  66 C    1     2.7589     5.2136  10 S    0 0-1
  66 C    1     2.8814     5.4450 114 H    0 0 0
  66 C    1     3.1397     5.9332   2 SC   0 0 0

  67 C    1     1.2666     2.3935  35 O    0 0 0
  67 C    1     1.2725     2.4046  55 O    0 0 0
  67 C    1     1.4600     2.7591  83 C    0 0 0
  67 C    1     2.5516     4.8218  99 C    0 0 0
  67 C    1     2.7619     5.2192  11 S    0 0 0
  67 C    1     2.8766     5.4359 115 H    0 0 0
  67 C    1     3.1197     5.8954   4 SC   0 0 0

  68 C    1     1.2662     2.3927  36 O    0 0 0
  68 C    1     1.2716     2.4029  56 O    0 0 0
  68 C    1     1.4641     2.7668  84 C    0 0 0
  68 C    1     2.5580     4.8339 100 C    0-1 0
  68 C    1     2.7650     5.2251  12 S    0-1 0
  68 C    1     2.8812     5.4447 116 H    0 0 0
  68 C    1     3.1463     5.9456   3 SC   0 0 0

  69 C    1     1.2667     2.3936  37 O    1 1 0
  69 C    1     1.2706     2.4010  50 O    0 0 0
  69 C    1     1.4613     2.7614  85 C    0 0-1
  69 C    1     2.5578     4.8336 101 C    0 0-1
  69 C    1     2.7582     5.2122  13 S    0 0-1
  69 C    1     2.8844     5.4508 117 H    0 0-1
  69 C    1     3.1264     5.9081   3 SC   1 1 0

  70 C    1     1.2664     2.3932  38 O    0 0 0
  70 C    1     1.2702     2.4003  49 O    0 0 0
  70 C    1     1.4627     2.7641  86 C    0 0 0
  70 C    1     2.5560     4.8301 102 C    0 0 0
  70 C    1     2.7638     5.2229  14 S    0 0 0
  70 C    1     2.8789     5.4402 118 H    0 0 0
  70 C    1     3.1382     5.9303   4 SC   0 0 0

  71 C    1     1.2669     2.3942  39 O    0 0 0
  71 C    1     1.2707     2.4013  51 O    0 0 0
  71 C    1     1.4641     2.7668  87 C    0 0 0
  71 C    1     2.5580     4.8339 103 C    0 0 0
  71 C    1     2.7631     5.2214  15 S    0 0 0
  71 C    1     2.8811     5.4445 119 H    0 0 0
  71 C    1     3.1401     5.9338   2 SC   0 0 0

  72 C    1     1.2663     2.3929  40 O    0 0 0
  72 C    1     1.2711     2.4021  52 O    0 0 0
  72 C    1     1.4634     2.7654  88 C    0-1 0
  72 C    1     2.5589     4.8357 104 C    0-1 0
  72 C    1     2.7596     5.2150  16 S    0-1 0
  72 C    1     2.8836     5.4492 120 H    0-1 0
  72 C    1     3.1571     5.9661   1 SC   0 0 0

  73 C    1     1.2683     2.3967  62 O    0 0 0
  73 C    1     1.2716     2.4030  41 O    0 0 0
  73 C    1     1.4605     2.7599  89 C    0 0 0
  73 C    1     2.5530     4.8244 105 C    0 0 0
  73 C    1     2.7624     5.2202  11 S    0 0 0
  73 C    1     2.8820     5.4462 121 H    0 0 0
  73 C    1     3.1402     5.9341   5 SC   0 0 0

  74 C    1     1.2687     2.3974  42 O    0 0 0
  74 C    1     1.2704     2.4008  61 O    0 0 0
  74 C    1     1.4640     2.7665  90 C    0 0 0
  74 C    1     2.5609     4.8393 106 C    0 0 1
  74 C    1     2.7630     5.2213  12 S    0 0 1
  74 C    1     2.8872     5.4560 122 H    0 0 0
  74 C    1     3.1656     5.9821   6 SC   0 0 0

  75 C    1     1.2696     2.3992  43 O    0 0 0
  75 C    1     1.2731     2.4058  63 O    0 0 0
  75 C    1     1.4572     2.7538  91 C    0 0 0
  75 C    1     2.5523     4.8231 107 C    0 0 0
  75 C    1     2.7604     5.2163   9 S    0 0 0
  75 C    1     2.8808     5.4440 123 H    0 0 0
  75 C    1     3.1413     5.9363   6 SC   0 0 0

  76 C    1     1.2659     2.3922  44 O    0 0 0
  76 C    1     1.2732     2.4061  64 O    0 0 0
  76 C    1     1.4599     2.7588  92 C    0 0 0
  76 C    1     2.5569     4.8319 108 C    0 1 0
  76 C    1     2.7544     5.2050  10 S    0 1 0
  76 C    1     2.8842     5.4504 124 H    0 1 0
  76 C    1     3.1243     5.9041   7 SC   0 0 0

  77 C    1     1.2683     2.3967  45 O   -1-1 0
  77 C    1     1.2704     2.4007  58 O    0 0 0
  77 C    1     1.4593     2.7578  93 C    0 0 1
  77 C    1     2.5521     4.8227 109 C    0 0 1
  77 C    1     2.7637     5.2226  15 S    0 0 1
  77 C    1     2.8754     5.4338 125 H    0 0 1
  77 C    1     3.1183     5.8927   7 SC  -1-1 0

  78 C    1     1.2671     2.3945  46 O    0 0 0
  78 C    1     1.2712     2.4023  57 O    0 0 0
  78 C    1     1.4601     2.7592  94 C    0 0 0
  78 C    1     2.5563     4.8308 110 C    0 0 0
  78 C    1     2.7584     5.2126  16 S    0 0 0
  78 C    1     2.8824     5.4469 126 H    0 0 0
  78 C    1     3.1321     5.9188   8 SC   0 0 0

  79 C    1     1.2666     2.3936  47 O    0 0 0
  79 C    1     1.2721     2.4039  59 O    0 0 0
  79 C    1     1.4614     2.7616  95 C    0 0 0
  79 C    1     2.5535     4.8254 111 C    0 0 0
  79 C    1     2.7631     5.2216  13 S    0 0 0
  79 C    1     2.8763     5.4355 127 H    0 0 0
  79 C    1     3.1726     5.9954   8 SC   0 0 0

  80 C    1     1.2680     2.3962  48 O    0 0 0
  80 C    1     1.2716     2.4031  60 O    0 0 0
  80 C    1     1.4613     2.7615  96 C    0 1 0
  80 C    1     2.5542     4.8268 112 C    0 1 0
  80 C    1     2.7638     5.2228  14 S    0 1 0
  80 C    1     2.8778     5.4383 128 H    0 1 0
  80 C    1     3.1315     5.9176  30 H    1 1 0

  81 C    1     1.3662     2.5818  97 C    0 0 0
  81 C    1     1.4632     2.7650  65 C    0 0 0
  81 C    1     1.7511     3.3091   9 S    0 0 0
  81 C    1     2.1491     4.0613 113 H    0 0 0
  81 C    1     2.3097     4.3648 107 C    0 0 0
  81 C    1     2.3253     4.3942  54 O    0 0 0
  81 C    1     2.3627     4.4649  33 O    0 0 0

  82 C    1     1.3661     2.5816  98 C    0 0-1
  82 C    1     1.4622     2.7632  66 C    0 0 0
  82 C    1     1.7488     3.3048  10 S    0 0-1
  82 C    1     2.1489     4.0609 114 H    0 0 0
  82 C    1     2.3081     4.3617 108 C    0 0-1
  82 C    1     2.3241     4.3918  53 O    0 0 0
  82 C    1     2.3586     4.4571  34 O    0 0 0

  83 C    1     1.3659     2.5811  99 C    0 0 0
  83 C    1     1.4600     2.7591  67 C    0 0 0
  83 C    1     1.7506     3.3082  11 S    0 0 0
  83 C    1     2.1496     4.0622 115 H    0 0 0
  83 C    1     2.3082     4.3619 105 C    0 0 0
  83 C    1     2.3322     4.4072  55 O    0 0 0
  83 C    1     2.3551     4.4504  35 O    0 0 0

  84 C    1     1.3662     2.5817 100 C    0-1 0
  84 C    1     1.4641     2.7668  68 C    0 0 0
  84 C    1     1.7502     3.3074  12 S    0-1 0
  84 C    1     2.1487     4.0604 116 H    0 0 0
  84 C    1     2.3104     4.3659 106 C    0-1 0
  84 C    1     2.3318     4.4065  56 O    0 0 0
  84 C    1     2.3589     4.4577  36 O    0 0 0

  85 C    1     1.3662     2.5818 101 C    0 0 0
  85 C    1     1.4613     2.7614  69 C    0 0 1
  85 C    1     1.7508     3.3086  13 S    0 0 0
  85 C    1     2.1493     4.0616 117 H    0 0 0
  85 C    1     2.3084     4.3622 111 C    0 0 0
  85 C    1     2.3217     4.3873  50 O    0 0 1
  85 C    1     2.3640     4.4674  37 O    1 1 1

  86 C    1     1.3662     2.5818 102 C    0 0 0
  86 C    1     1.4627     2.7641  70 C    0 0 0
  86 C    1     1.7506     3.3082  14 S    0 0 0
  86 C    1     2.1486     4.0603 118 H    0 0 0
  86 C    1     2.3084     4.3622 112 C    0 0 0
  86 C    1     2.3253     4.3942  49 O    0 0 0
  86 C    1     2.3613     4.4622  38 O    0 0 0

  87 C    1     1.3663     2.5819 103 C    0 0 0
  87 C    1     1.4641     2.7668  71 C    0 0 0
  87 C    1     1.7497     3.3065  15 S    0 0 0
  87 C    1     2.1487     4.0605 119 H    0 0 0
  87 C    1     2.3085     4.3625 109 C    0 0 0
  87 C    1     2.3281     4.3994  51 O    0 0 0
  87 C    1     2.3590     4.4578  39 O    0 0 0

  88 C    1     1.3663     2.5819 104 C    0 0 0
  88 C    1     1.4634     2.7654  72 C    0 1 0
  88 C    1     1.7492     3.3055  16 S    0 0 0
  88 C    1     2.1488     4.0607 120 H    0 0 0
  88 C    1     2.3090     4.3633 110 C    0 0 0
  88 C    1     2.3271     4.3975  52 O    0 1 0
  88 C    1     2.3588     4.4574  40 O    0 1 0

  89 C    1     1.3677     2.5845 105 C    0 0 0
  89 C    1     1.4605     2.7599  73 C    0 0 0
  89 C    1     1.7498     3.3067  11 S    0 0 0
  89 C    1     2.1533     4.0692 121 H    0 0 0
  89 C    1     2.3088     4.3631  99 C    0 0 0
  89 C    1     2.3269     4.3972  62 O    0 0 0
  89 C    1     2.3593     4.4583  41 O    0 0 0

  90 C    1     1.3661     2.5815 106 C    0 0 1
  90 C    1     1.4640     2.7665  74 C    0 0 0
  90 C    1     1.7520     3.3108  12 S    0 0 1
  90 C    1     2.1492     4.0613 122 H    0 0 0
  90 C    1     2.3100     4.3652 100 C    0 0 1
  90 C    1     2.3213     4.3867  61 O    0 0 0
  90 C    1     2.3665     4.4721  42 O    0 0 0

  91 C    1     1.3686     2.5862 107 C    0 0 0
  91 C    1     1.4572     2.7538  75 C    0 0 0
  91 C    1     1.7517     3.3103   9 S    0 0 0
  91 C    1     2.1530     4.0687 123 H    0 0 0
  91 C    1     2.3086     4.3626  97 C    0 0 0
  91 C    1     2.3320     4.4068  63 O    0 0 0
  91 C    1     2.3591     4.4580  43 O    0 0 0

  92 C    1     1.3660     2.5813 108 C    0 1 0
  92 C    1     1.4599     2.7588  76 C    0 0 0
  92 C    1     1.7494     3.3059  10 S    0 1 0
  92 C    1     2.1491     4.0611 124 H    0 1 0
  92 C    1     2.3078     4.3612  98 C    0 1 0
  92 C    1     2.3249     4.3934  64 O    0 0 0
  92 C    1     2.3583     4.4565  44 O    0 0 0

  93 C    1     1.3668     2.5829 109 C    0 0 0
  93 C    1     1.4593     2.7578  77 C    0 0-1
  93 C    1     1.7509     3.3087  15 S    0 0 0
  93 C    1     2.1496     4.0621 125 H    0 0 0
  93 C    1     2.3093     4.3639 103 C    0 0 0
  93 C    1     2.3276     4.3985  58 O    0 0-1
  93 C    1     2.3616     4.4628  45 O   -1-1-1

  94 C    1     1.3665     2.5824 110 C    0 0 0
  94 C    1     1.4601     2.7592  78 C    0 0 0
  94 C    1     1.7505     3.3080  16 S    0 0 0
  94 C    1     2.1494     4.0618 126 H    0 0 0
  94 C    1     2.3087     4.3628 104 C    0 0 0
  94 C    1     2.3235     4.3908  57 O    0 0 0
  94 C    1     2.3628     4.4650  46 O    0 0 0

  95 C    1     1.3669     2.5831 111 C    0 0 0
  95 C    1     1.4614     2.7616  79 C    0 0 0
  95 C    1     1.7492     3.3055  13 S    0 0 0
  95 C    1     2.1499     4.0628 127 H    0 0 0
  95 C    1     2.3088     4.3630 101 C    0 0 0
  95 C    1     2.3304     4.4039  59 O    0 0 0
  95 C    1     2.3542     4.4488  47 O    0 0 0

  96 C    1     1.3666     2.5826 112 C    0 0 0
  96 C    1     1.4613     2.7615  80 C    0-1 0
  96 C    1     1.7502     3.3073  14 S    0 0 0
  96 C    1     2.1496     4.0622 128 H    0 0 0
  96 C    1     2.3094     4.3641 102 C    0 0 0
  96 C    1     2.3325     4.4077  60 O    0-1 0
  96 C    1     2.3585     4.4570  48 O    0-1 0

  97 C    1     1.0802     2.0413 113 H    0 0 0
  97 C    1     1.3662     2.5818  81 C    0 0 0
  97 C    1     1.4046     2.6543 107 C    0 0 0
  97 C    1     2.2038     4.1645 123 H    0 0 0
  97 C    1     2.3086     4.3626  91 C    0 0 0
  97 C    1     2.5564     4.8308  65 C    0 0 0
  97 C    1     2.5998     4.9128   9 S    0 0 0

  98 C    1     1.0804     2.0417 114 H    0 0 1
  98 C    1     1.3661     2.5816  82 C    0 0 1
  98 C    1     1.4051     2.6553 108 C    0 0 0
  98 C    1     2.2072     4.1711 124 H    0 0 0
  98 C    1     2.3078     4.3612  92 C    0-1 0
  98 C    1     2.5568     4.8316  66 C    0 0 1
  98 C    1     2.5983     4.9100  10 S    0 0 0

  99 C    1     1.0799     2.0407 115 H    0 0 0
  99 C    1     1.3659     2.5811  83 C    0 0 0
  99 C    1     1.4047     2.6545 105 C    0 0 0
  99 C    1     2.2007     4.1586 121 H    0 0 0
  99 C    1     2.3088     4.3631  89 C    0 0 0
  99 C    1     2.5516     4.8218  67 C    0 0 0
  99 C    1     2.5995     4.9123  11 S    0 0 0

 100 C    1     1.0804     2.0416 116 H    0 1 0
 100 C    1     1.3662     2.5817  84 C    0 1 0
 100 C    1     1.4057     2.6564 106 C    0 0 0
 100 C    1     2.2068     4.1702 122 H    0 0-1
 100 C    1     2.3100     4.3652  90 C    0 0-1
 100 C    1     2.5580     4.8339  68 C    0 1 0
 100 C    1     2.5968     4.9073  12 S    0 0 0

 101 C    1     1.0804     2.0416 117 H    0 0 0
 101 C    1     1.3662     2.5818  85 C    0 0 0
 101 C    1     1.4048     2.6548 111 C    0 0 0
 101 C    1     2.2068     4.1702 127 H    0 0 0
 101 C    1     2.3088     4.3630  95 C    0 0 0
 101 C    1     2.5578     4.8336  69 C    0 0 1
 101 C    1     2.5993     4.9120  13 S    0 0 0

 102 C    1     1.0804     2.0416 118 H    0 0 0
 102 C    1     1.3662     2.5818  86 C    0 0 0
 102 C    1     1.4047     2.6546 112 C    0 0 0
 102 C    1     2.2060     4.1688 128 H    0 0 0
 102 C    1     2.3094     4.3641  96 C    0 0 0
 102 C    1     2.5560     4.8301  70 C    0 0 0
 102 C    1     2.5987     4.9108  14 S    0 0 0

 103 C    1     1.0804     2.0416 119 H    0 0 0
 103 C    1     1.3663     2.5819  87 C    0 0 0
 103 C    1     1.4047     2.6545 109 C    0 0 0
 103 C    1     2.2062     4.1692 125 H    0 0 0
 103 C    1     2.3093     4.3639  93 C    0 0 0
 103 C    1     2.5580     4.8339  71 C    0 0 0
 103 C    1     2.5983     4.9100  15 S    0 0 0

 104 C    1     1.0804     2.0416 120 H    0 0 0
 104 C    1     1.3663     2.5819  88 C    0 0 0
 104 C    1     1.4051     2.6553 110 C    0 0 0
 104 C    1     2.2072     4.1709 126 H    0 0 0
 104 C    1     2.3087     4.3628  94 C    0 0 0
 104 C    1     2.5589     4.8357  72 C    0 1 0
 104 C    1     2.5979     4.9094  16 S    0 0 0

 105 C    1     1.0786     2.0382 121 H    0 0 0
 105 C    1     1.3677     2.5845  89 C    0 0 0
 105 C    1     1.4047     2.6545  99 C    0 0 0
 105 C    1     2.2047     4.1663 115 H    0 0 0
 105 C    1     2.3082     4.3619  83 C    0 0 0
 105 C    1     2.5530     4.8244  73 C    0 0 0
 105 C    1     2.5999     4.9132  11 S    0 0 0

 106 C    1     1.0806     2.0420 122 H    0 0-1
 106 C    1     1.3661     2.5815  90 C    0 0-1
 106 C    1     1.4057     2.6564 100 C    0 0 0
 106 C    1     2.2069     4.1705 116 H    0 1 0
 106 C    1     2.3104     4.3659  84 C    0 1 0
 106 C    1     2.5609     4.8393  74 C    0 0-1
 106 C    1     2.5977     4.9089  12 S    0 0 0

 107 C    1     1.0792     2.0393 123 H    0 0 0
 107 C    1     1.3686     2.5862  91 C    0 0 0
 107 C    1     1.4046     2.6543  97 C    0 0 0
 107 C    1     2.2048     4.1664 113 H    0 0 0
 107 C    1     2.3097     4.3648  81 C    0 0 0
 107 C    1     2.5523     4.8231  75 C    0 0 0
 107 C    1     2.6023     4.9176   9 S    0 0 0

 108 C    1     1.0804     2.0416 124 H    0 0 0
 108 C    1     1.3660     2.5813  92 C    0-1 0
 108 C    1     1.4051     2.6553  98 C    0 0 0
 108 C    1     2.2073     4.1713 114 H    0 0 1
 108 C    1     2.3081     4.3617  82 C    0 0 1
 108 C    1     2.5569     4.8319  76 C    0-1 0
 108 C    1     2.5985     4.9105  10 S    0 0 0

 109 C    1     1.0804     2.0417 125 H    0 0 0
 109 C    1     1.3668     2.5829  93 C    0 0 0
 109 C    1     1.4047     2.6545 103 C    0 0 0
 109 C    1     2.2068     4.1702 119 H    0 0 0
 109 C    1     2.3085     4.3625  87 C    0 0 0
 109 C    1     2.5521     4.8227  77 C    0 0-1
 109 C    1     2.5986     4.9107  15 S    0 0 0

 110 C    1     1.0805     2.0418 126 H    0 0 0
 110 C    1     1.3665     2.5824  94 C    0 0 0
 110 C    1     1.4051     2.6553 104 C    0 0 0
 110 C    1     2.2070     4.1707 120 H    0 0 0
 110 C    1     2.3090     4.3633  88 C    0 0 0
 110 C    1     2.5563     4.8308  78 C    0 0 0
 110 C    1     2.5988     4.9110  16 S    0 0 0

 111 C    1     1.0805     2.0418 127 H    0 0 0
 111 C    1     1.3669     2.5831  95 C    0 0 0
 111 C    1     1.4048     2.6548 101 C    0 0 0
 111 C    1     2.2065     4.1697 117 H    0 0 0
 111 C    1     2.3084     4.3622  85 C    0 0 0
 111 C    1     2.5535     4.8254  79 C    0 0 0
 111 C    1     2.5989     4.9112  13 S    0 0 0

 112 C    1     1.0805     2.0418 128 H    0 0 0
 112 C    1     1.3666     2.5826  96 C    0 0 0
 112 C    1     1.4047     2.6546 102 C    0 0 0
 112 C    1     2.2070     4.1706 118 H    0 0 0
 112 C    1     2.3084     4.3622  86 C    0 0 0
 112 C    1     2.5542     4.8268  80 C    0-1 0
 112 C    1     2.5982     4.9098  14 S    0 0 0

 113 H    1     1.0802     2.0413  97 C    0 0 0
 113 H    1     2.1491     4.0613  81 C    0 0 0
 113 H    1     2.2048     4.1664 107 C    0 0 0
 113 H    1     2.6293     4.9687 123 H    0 0 0
 113 H    1     2.8022     5.2955  33 O    0 0 0
 113 H    1     2.8802     5.4428  65 C    0 0 0
 113 H    1     3.3334     6.2991  91 C    0 0 0

 114 H    1     1.0804     2.0417  98 C    0 0-1
 114 H    1     2.1489     4.0609  82 C    0 0 0
 114 H    1     2.2073     4.1713 108 C    0 0-1
 114 H    1     2.6366     4.9825 124 H    0 0-1
 114 H    1     2.8051     5.3010  34 O    0 0 0
 114 H    1     2.8814     5.4450  66 C    0 0 0
 114 H    1     3.3334     6.2992  92 C    0-1-1

 115 H    1     1.0799     2.0407  99 C    0 0 0
 115 H    1     2.1496     4.0622  83 C    0 0 0
 115 H    1     2.2047     4.1663 105 C    0 0 0
 115 H    1     2.6250     4.9605 121 H    0 0 0
 115 H    1     2.7840     5.2610  35 O    0 0 0
 115 H    1     2.8766     5.4359  67 C    0 0 0
 115 H    1     3.3331     6.2987  89 C    0 0 0

 116 H    1     1.0804     2.0416 100 C    0-1 0
 116 H    1     2.1487     4.0604  84 C    0 0 0
 116 H    1     2.2069     4.1705 106 C    0-1 0
 116 H    1     2.6342     4.9778 122 H    0-1-1
 116 H    1     2.8073     5.3050  36 O    0 0 0
 116 H    1     2.8812     5.4447  68 C    0 0 0
 116 H    1     3.3347     6.3016  90 C    0-1-1

 117 H    1     1.0804     2.0416 101 C    0 0 0
 117 H    1     2.1493     4.0616  85 C    0 0 0
 117 H    1     2.2065     4.1697 111 C    0 0 0
 117 H    1     2.6352     4.9798 127 H    0 0 0
 117 H    1     2.8083     5.3070  37 O    1 1 1
 117 H    1     2.8844     5.4508  69 C    0 0 1
 117 H    1     3.3340     6.3004  95 C    0 0 0

 118 H    1     1.0804     2.0416 102 C    0 0 0
 118 H    1     2.1486     4.0603  86 C    0 0 0
 118 H    1     2.2070     4.1706 112 C    0 0 0
 118 H    1     2.6349     4.9792 128 H    0 0 0
 118 H    1     2.7952     5.2821  38 O    0 0 0
 118 H    1     2.8789     5.4402  70 C    0 0 0
 118 H    1     3.3347     6.3017  96 C    0 0 0

 119 H    1     1.0804     2.0416 103 C    0 0 0
 119 H    1     2.1487     4.0605  87 C    0 0 0
 119 H    1     2.2068     4.1702 109 C    0 0 0
 119 H    1     2.6350     4.9795 125 H    0 0 0
 119 H    1     2.7949     5.2815  39 O    0 0 0
 119 H    1     2.8811     5.4445  71 C    0 0 0
 119 H    1     3.3346     6.3014  93 C    0 0 0

 120 H    1     1.0804     2.0416 104 C    0 0 0
 120 H    1     2.1488     4.0607  88 C    0 0 0
 120 H    1     2.2070     4.1707 110 C    0 0 0
 120 H    1     2.6361     4.9815 126 H    0 0 0
 120 H    1     2.7992     5.2896  40 O    0 1 0
 120 H    1     2.8836     5.4492  72 C    0 1 0
 120 H    1     3.3340     6.3004  94 C    0 0 0

 121 H    1     1.0786     2.0382 105 C    0 0 0
 121 H    1     2.1533     4.0692  89 C    0 0 0
 121 H    1     2.2007     4.1586  99 C    0 0 0
 121 H    1     2.6250     4.9605 115 H    0 0 0
 121 H    1     2.6625     5.0313 130 O    1 1 0
 121 H    1     2.8226     5.3339  41 O    0 0 0
 121 H    1     2.8820     5.4462  73 C    0 0 0

 122 H    1     1.0806     2.0420 106 C    0 0 1
 122 H    1     2.1492     4.0613  90 C    0 0 0
 122 H    1     2.2068     4.1702 100 C    0 0 1
 122 H    1     2.6342     4.9778 116 H    0 1 1
 122 H    1     2.8210     5.3310  42 O    0 0 0
 122 H    1     2.8872     5.4560  74 C    0 0 0
 122 H    1     3.3351     6.3024  84 C    0 1 1

 123 H    1     1.0792     2.0393 107 C    0 0 0
 123 H    1     2.1530     4.0687  91 C    0 0 0
 123 H    1     2.2038     4.1645  97 C    0 0 0
 123 H    1     2.6293     4.9687 113 H    0 0 0
 123 H    1     2.7965     5.2846  43 O    0 0 0
 123 H    1     2.8457     5.3776 131 O   -1-1 0
 123 H    1     2.8501     5.3859 130 O    0 0 0

 124 H    1     1.0804     2.0416 108 C    0 0 0
 124 H    1     2.1491     4.0611  92 C    0-1 0
 124 H    1     2.2072     4.1711  98 C    0 0 0
 124 H    1     2.6366     4.9825 114 H    0 0 1
 124 H    1     2.8205     5.3300  44 O    0-1 0
 124 H    1     2.8842     5.4504  76 C    0-1 0
 124 H    1     3.3335     6.2994  82 C    0 0 1

 125 H    1     1.0804     2.0417 109 C    0 0 0
 125 H    1     2.1496     4.0621  93 C    0 0 0
 125 H    1     2.2062     4.1692 103 C    0 0 0
 125 H    1     2.6350     4.9795 119 H    0 0 0
 125 H    1     2.7911     5.2744  45 O   -1-1-1
 125 H    1     2.8754     5.4338  77 C    0 0-1
 125 H    1     3.3336     6.2997  87 C    0 0 0

 126 H    1     1.0805     2.0418 110 C    0 0 0
 126 H    1     2.1494     4.0618  94 C    0 0 0
 126 H    1     2.2072     4.1709 104 C    0 0 0
 126 H    1     2.6361     4.9815 120 H    0 0 0
 126 H    1     2.8050     5.3007  46 O    0 0 0
 126 H    1     2.8824     5.4469  78 C    0 0 0
 126 H    1     3.3343     6.3010  88 C    0 0 0

 127 H    1     1.0805     2.0418 111 C    0 0 0
 127 H    1     2.1499     4.0628  95 C    0 0 0
 127 H    1     2.2068     4.1702 101 C    0 0 0
 127 H    1     2.6352     4.9798 117 H    0 0 0
 127 H    1     2.7776     5.2488  47 O    0 0 0
 127 H    1     2.8763     5.4355  79 C    0 0 0
 127 H    1     3.3337     6.2998  85 C    0 0 0

 128 H    1     1.0805     2.0418 112 C    0 0 0
 128 H    1     2.1496     4.0622  96 C    0 0 0
 128 H    1     2.2060     4.1688 102 C    0 0 0
 128 H    1     2.6349     4.9792 118 H    0 0 0
 128 H    1     2.7932     5.2784  48 O    0-1 0
 128 H    1     2.8778     5.4383  80 C    0-1 0
 128 H    1     3.3334     6.2991  86 C    0 0 0

 129 S    1     1.5085     2.8507 130 O    1 1 0
 129 S    1     1.5141     2.8613 131 O    0 0 0
 129 S    1     2.7589     5.2135  32 H    0 0 0
 129 S    1     3.0218     5.7104  22 O    1 1 0
 129 S    1     3.0819     5.8239  41 O    0 0 0
 129 S    1     3.1172     5.8907  30 H    1 1 0
 129 S    1     3.1211     5.8980  24 O    0 0 0

 130 O    1     1.5085     2.8507 129 S   -1-1 0
 130 O    1     2.5575     4.8330 131 O   -1-1 0
 130 O    1     2.6625     5.0313 121 H   -1-1 0
 130 O    1     2.8501     5.3859 123 H    0 0 0
 130 O    1     3.0914     5.8419 107 C    0 0 0
 130 O    1     3.1162     5.8888 105 C   -1-1 0
 130 O    1     3.3104     6.2558  91 C    0 0 0

 131 O    1     1.5141     2.8613 129 S    0 0 0
 131 O    1     2.3016     4.3494  32 H    0 0 0
 131 O    1     2.5575     4.8330 130 O    1 1 0
 131 O    1     2.8457     5.3776 123 H    1 1 0
 131 O    1     3.0724     5.8059  24 O    0 0 0
 131 O    1     3.3702     6.3688  41 O    0 0 0
 131 O    1     3.5762     6.7581  43 O    1 1 0

 *******************************************************************************
       TOPOLOGICAL ANALYSIS OF -(LAP(RHO)) : ATOMIC CLUSTERS CONSIDERED
 *******************************************************************************
 CLUSTERS AROUND EACH OF THE NON-EQUIVALENT ATOMS

 NON-EQUIV. ATOM       1 SC(N.      1 IN THE UNIT CELL), CLUSTER OF      7 ATOMS
 NEW  OLD   CELL  AT. NU.         COORD.(AU)             DISTANCE (ANG)
     1      17       0     0     0    8      -10.746   0.791  -2.383          2.085
     2      20       0     0     0    8      -10.728   0.313  -8.299          2.085
     3      49       0     0     0    8      -10.128   6.122  -3.047          2.085
     4      52       0     0     0    8      -11.252   5.832  -8.402          2.097
     5      36       0     0     0    8      -14.768   3.034  -5.312          2.151
     6      33       0     0     0    8       -6.667   2.866  -5.978          2.158
     7      28       0     0     0    1       -9.150  -0.566  -8.533          2.648

 NON-EQUIV. ATOM       2 SC(N.      2 IN THE UNIT CELL), CLUSTER OF      7 ATOMS
 NEW  OLD   CELL  AT. NU.         COORD.(AU)             DISTANCE (ANG)
     1      50       0     0     0    8      -11.423  -4.848   8.719          2.078
     2      19       0     0     0    8      -10.735   0.900   3.435          2.086
     3      18       0     0     0    8      -10.688   0.442   9.348          2.087
     4      51       0     0     0    8      -10.277  -4.656   3.351          2.102
     5      35       0     0     0    8       -6.720  -1.896   6.391          2.137
     6      34       0     0     0    8      -14.797  -1.649   5.712          2.159
     7      27       0     0     0    1      -12.350   1.685   3.131          2.640

 NON-EQUIV. ATOM       3 SC(N.      3 IN THE UNIT CELL), CLUSTER OF      7 ATOMS
 NEW  OLD   CELL  AT. NU.         COORD.(AU)             DISTANCE (ANG)
     1      20       0     0     0    8      -10.728   0.313  -8.299          2.082
     2      18      -1    -1     0    8      -10.660   0.383 -14.169          2.086
     3      53      -1    -1     0    8      -16.101  -0.421 -13.997          2.089
     4      56       0     0     0    8      -16.168   0.745  -8.584          2.094
     5      37       0     0     0    8      -12.984  -3.872 -11.017          2.148
     6      40       0     0     0    8      -13.394   4.237 -11.691          2.167
     7      28       0     0     0    1       -9.150  -0.566  -8.533          2.663

 NON-EQUIV. ATOM       4 SC(N.      4 IN THE UNIT CELL), CLUSTER OF      7 ATOMS
 NEW  OLD   CELL  AT. NU.         COORD.(AU)             DISTANCE (ANG)
     1      19       0     0     0    8      -10.735   0.900   3.435          2.084
     2      54       0     0     0    8       -5.282   1.508  -2.214          2.089
     3      17       0     0     0    8      -10.746   0.791  -2.383          2.090
     4      55       0     0     0    8       -5.296   0.594   3.283          2.090
     5      38       0     0     0    8       -8.383   5.075   0.662          2.142
     6      39       0     0     0    8       -7.986  -3.036   0.176          2.166
     7      27       0     0     0    1      -12.350   1.685   3.131          2.667

 NON-EQUIV. ATOM       5 SC(N.      5 IN THE UNIT CELL), CLUSTER OF      8 ATOMS
 NEW  OLD   CELL  AT. NU.         COORD.(AU)             DISTANCE (ANG)
     1      57       0     0     0    8       10.078  -6.083   3.138          2.077
     2      21       0     0     0    8       10.801  -0.802   2.502          2.083
     3      24       0     0     0    8       10.774  -0.200   8.282          2.083
     4      60       0     0     0    8       11.023  -5.748   8.634          2.098
     5      44       0     0     0    8       14.731  -3.246   5.516          2.147
     6      41       0     0     0    8        6.620  -2.951   6.143          2.165
     7      29       0     0     0    1       11.597   0.823   2.705          2.663
     8      32       0     0     0    1        9.504   1.113   8.239          2.703

 NON-EQUIV. ATOM       6 SC(N.      6 IN THE UNIT CELL), CLUSTER OF      7 ATOMS
 NEW  OLD   CELL  AT. NU.         COORD.(AU)             DISTANCE (ANG)
     1      58       0     0     0    8       11.161   4.806  -8.767          2.075
     2      23       0     0     0    8       10.765  -0.831  -3.333          2.087
     3      22       0     0     0    8       10.823  -0.579  -9.240          2.093
     4      59       0     0     0    8        9.962   4.650  -3.405          2.095
     5      43       0     0     0    8        6.664   1.622  -6.616          2.145
     6      42       0     0     0    8       14.766   1.768  -5.736          2.174
     7      31       0     0     0    1       12.419  -1.493  -2.949          2.643

 NON-EQUIV. ATOM       7 SC(N.      7 IN THE UNIT CELL), CLUSTER OF      7 ATOMS
 NEW  OLD   CELL  AT. NU.         COORD.(AU)             DISTANCE (ANG)
     1      64       0     0     0    8       16.182  -0.760   8.624          2.081
     2      24       0     0     0    8       10.774  -0.200   8.282          2.085
     3      61       1     1     0    8       16.130   0.610  13.966          2.087
     4      22       1     1     0    8       10.794  -0.521  14.277          2.101
     5      45       0     0     0    8       12.856   3.902  11.016          2.136
     6      48       0     0     0    8       13.411  -4.186  11.756          2.180
     7      30       1     1     0    1       10.510  -2.278  14.675          2.615

 NON-EQUIV. ATOM       8 SC(N.      8 IN THE UNIT CELL), CLUSTER OF      7 ATOMS
 NEW  OLD   CELL  AT. NU.         COORD.(AU)             DISTANCE (ANG)
     1      63       0     0     0    8        5.355  -0.388  -3.136          2.080
     2      62       0     0     0    8        5.346  -1.459   2.390          2.092
     3      21       0     0     0    8       10.801  -0.802   2.502          2.096
     4      23       0     0     0    8       10.765  -0.831  -3.333          2.096
     5      46       0     0     0    8        8.372  -5.013  -0.581          2.139
     6      47       0     0     0    8        8.132   3.067   0.073          2.158
     7      29       0     0     0    1       11.597   0.823   2.705          2.649

 NON-EQUIV. ATOM       9 S (N.      9 IN THE UNIT CELL), CLUSTER OF      7 ATOMS
 NEW  OLD   CELL  AT. NU.         COORD.(AU)             DISTANCE (ANG)
     1      81       0     0     0    6       -2.305   2.113  -5.390          1.751
     2      91       0     0     0    6        2.305   1.512  -5.688          1.752
     3      97       0     0     0    6       -1.317   3.019  -7.596          2.600
     4     107       0     0     0    6        1.315   2.714  -7.753          2.602
     5      75       0     0     0    6        4.928   0.876  -5.138          2.760
     6      65       0     0     0    6       -4.919   2.175  -4.490          2.764
     7      54       0     0     0    8       -5.282   1.508  -2.214          2.894

 NON-EQUIV. ATOM      10 S (N.     10 IN THE UNIT CELL), CLUSTER OF      7 ATOMS
 NEW  OLD   CELL  AT. NU.         COORD.(AU)             DISTANCE (ANG)
     1      82       0     0     1    6        1.116  19.186  -5.316          1.749
     2      92       0    -1     0    6       -3.505  19.706  -5.512          1.749
     3      98       0     0     0    6        0.092  18.217  -7.478          2.598
     4     108       0     0     0    6       -2.547  18.491  -7.579          2.599
     5      76       0    -1     0    6       -6.119  20.345  -4.904          2.754
     6      66       0     0     1    6        3.749  19.201  -4.478          2.759
     7      53       0     0     1    8        4.143  19.867  -2.208          2.890

 NON-EQUIV. ATOM      11 S (N.     11 IN THE UNIT CELL), CLUSTER OF      7 ATOMS
 NEW  OLD   CELL  AT. NU.         COORD.(AU)             DISTANCE (ANG)
     1      89       0     0     0    6        2.276  -2.237   5.440          1.750
     2      83       0     0     0    6       -2.336  -1.637   5.668          1.751
     3      99       0     0     0    6       -1.428  -3.131   7.567          2.599
     4     105       0     0     0    6        1.200  -3.482   7.433          2.600
     5      67       0     0     0    6       -4.945  -0.936   5.104          2.762
     6      73       0     0     0    6        4.911  -2.220   4.620          2.762
     7      55       0     0     0    8       -5.296   0.594   3.283          2.904

 NON-EQUIV. ATOM      12 S (N.     12 IN THE UNIT CELL), CLUSTER OF      7 ATOMS
 NEW  OLD   CELL  AT. NU.         COORD.(AU)             DISTANCE (ANG)
     1      84       0     1     0    6        3.479 -19.805   5.600          1.750
     2      90       0     0    -1    6       -1.136 -19.162   5.357          1.752
     3     100       0     0     0    6        2.510 -18.665   7.704          2.597
     4     106       0     0     0    6       -0.120 -18.320   7.576          2.598
[...]
 C      107      0     0     0    3.3222   22.27   44.46   37.22
 C      105     -1    -1     0    2.9024   26.71   19.79   55.75
 C       91      0     0     0    3.6086   11.75   27.94   59.28

 CP N.      4   VSCC OF NON-EQUIV. ATOM    130 O 
 *********

 CP TYPE                        :  (3,-1)
 COORD(AU)  (X  Y  Z)           :  3.9141E+00 -1.3767E+00 -1.1264E+01
 COORD FRACT. CONV. CELL        :  8.9437E-02 -2.6452E-02 -4.7869E-01
 PROPERTIES (-LAP,GLAP,RHO)     :  2.1114E+00  1.1420E-13  7.3032E-01

 SPECTRAL DECOMP. OF THE HESSIAN OF -LAP(RHO)

 EIGENVALUES (L1 L2 L3)         : -2.8128E+02 -2.8379E+00  5.1447E+00
 EIGENVECTORS                   :  7.1181E-01 -2.6009E-01 -6.5244E-01
                                   5.0202E-01 -4.6126E-01  7.3158E-01
                                  -4.9122E-01 -8.4829E-01 -1.9776E-01


 VECTORS FROM NUCLEI TO CP (LENGTHS AND ANGLES MADE WITH PROJ. ONTO YZ,XZ,XY)


 SYM OLD    CELL      RX(ANG)    YZ      XZ      XY
 O      130      0     0     0    0.3627   46.36   29.41   29.01
 S      129     -1    -1     0    1.1579   62.77   16.19   21.28
 O      131     -1    -1     0    2.2193   25.65   49.33   29.16
 H      121     -1    -1     0    2.7161   18.38   40.62   43.67
 H      123      0     0     0    2.8051   15.92   62.76   21.50
 C      107      0     0     0    3.1670   25.74   43.12   35.92
 C      105     -1    -1     0    3.1362   26.94   21.41   54.42
 C       91      0     0     0    3.4304   14.37   26.46   59.33

 CP N.      5   VSCC OF NON-EQUIV. ATOM    130 O 
 *********

 CP TYPE                        :  (3,-3)
 COORD(AU)  (X  Y  Z)           :  2.9395E+00 -1.3083E+00 -1.1003E+01
 COORD FRACT. CONV. CELL        :  6.6747E-02 -2.6138E-02 -4.6763E-01
 PROPERTIES (-LAP,GLAP,RHO)     :  5.6690E+00  5.8645E-12  9.6584E-01

 SPECTRAL DECOMP. OF THE HESSIAN OF -LAP(RHO)

 EIGENVALUES (L1 L2 L3)         : -6.8919E+02 -1.6678E+01 -1.4922E+01
 EIGENVECTORS                   :  7.5986E-01 -6.2530E-01  1.7780E-01
                                  -6.4032E-01 -6.7268E-01  3.7080E-01
                                   1.1226E-01  3.9560E-01  9.1153E-01


 VECTORS FROM NUCLEI TO CP (LENGTHS AND ANGLES MADE WITH PROJ. ONTO YZ,XZ,XY)


 SYM OLD    CELL      RX(ANG)    YZ      XZ      XY
 O      130      0     0     0    0.3338   49.33   39.93    6.50
 S      129     -1    -1     0    1.6678   67.90    9.90   19.55
 O      131     -1    -1     0    2.5257   35.77   40.70   28.87
 H      121     -1    -1     0    2.7250    7.18   41.47   47.63
 H      123      0     0     0    2.6263    5.54   69.37   19.81
 C      107      0     0     0    2.8684   17.44   47.91   36.84
 C      105     -1    -1     0    3.0731   17.13   22.60   61.04
 C       91      0     0     0    3.2017    6.02   27.78   61.46

 CP N.      6   VSCC OF NON-EQUIV. ATOM    130 O 
 *********

 CP TYPE                        :  (3,-3)
 COORD(AU)  (X  Y  Z)           :  3.6229E+00 -2.2691E+00 -1.0707E+01
 COORD FRACT. CONV. CELL        :  8.1482E-02 -4.7728E-02 -4.5493E-01
 PROPERTIES (-LAP,GLAP,RHO)     :  5.3727E+00  2.9089E-11  9.4879E-01

 SPECTRAL DECOMP. OF THE HESSIAN OF -LAP(RHO)

 EIGENVALUES (L1 L2 L3)         : -6.6100E+02 -1.4869E+01 -1.3668E+01
 EIGENVECTORS                   : -3.2344E-01  9.4145E-01  9.5230E-02
                                   8.7737E-01  2.6068E-01  4.0282E-01
                                  -3.5441E-01 -2.1384E-01  9.1031E-01


 VECTORS FROM NUCLEI TO CP (LENGTHS AND ANGLES MADE WITH PROJ. ONTO YZ,XZ,XY)


 SYM OLD    CELL      RX(ANG)    YZ      XZ      XY
 O      130      0     0     0    0.3353   18.87   61.33   20.76
 S      129     -1    -1     0    1.5951   47.91   29.90   26.63
 O      131     -1    -1     0    2.7896   23.55   50.60   29.55
 H      121     -1    -1     0    2.6233   15.53   29.61   55.81
 H      123      0     0     0    3.1169   11.38   72.12   13.61
 C      107      0     0     0    3.2998   21.72   53.05   28.28
 C      105     -1    -1     0    3.1864   23.43   12.19   63.25
 C       91      0     0     0    3.3976   11.84   36.08   51.42

 CP N.      7   VSCC OF NON-EQUIV. ATOM    130 O 
 *********

 CP TYPE                        :  (3,+1)
 COORD(AU)  (X  Y  Z)           :  4.9904E+00 -1.7133E+00 -1.1364E+01
 COORD FRACT. CONV. CELL        :  1.1416E-01 -3.2916E-02 -4.8286E-01
 PROPERTIES (-LAP,GLAP,RHO)     : -6.6810E-02  1.4517E-12  1.9466E-01

 SPECTRAL DECOMP. OF THE HESSIAN OF -LAP(RHO)

 EIGENVALUES (L1 L2 L3)         : -7.5993E+00  5.6666E-01  8.7852E-01
 EIGENVECTORS                   :  6.2871E-01 -2.4891E-01 -7.3673E-01
                                   6.1835E-01 -4.1447E-01  6.6772E-01
                                  -4.7156E-01 -8.7536E-01 -1.0667E-01


 VECTORS FROM NUCLEI TO CP (LENGTHS AND ANGLES MADE WITH PROJ. ONTO YZ,XZ,XY)


 SYM OLD    CELL      RX(ANG)    YZ      XZ      XY
 O      130      0     0     0    0.8629   74.63    0.00   15.37
 S      129     -1    -1     0    0.7729   36.52   40.40   28.37
 O      131     -1    -1     0    2.1622   10.42   59.41   28.40
 H      121     -1    -1     0    2.8077   30.52   34.50   40.47
 H      123      0     0     0    3.1782   24.91   57.22   19.88
 C      107      0     0     0    3.5948   32.75   40.67   32.11
 C      105     -1    -1     0    3.3370   36.62   16.84   48.46
 C       91      0     0     0    3.7354   22.36   27.19   53.52

 NON-EQUIV. ATOM O    130  NUMBER OF CPS FOUND:  7


      ********** C R I T I C A L  P O I N T S  F O U N D **********


   X(AU)   Y(AU)   Z(AU)    TYPE     -LAP      RHO    L1(V1)   L2(V2)   L3(V3)

 *******************************************************************************

   4.669  -0.874 -11.191  (3,-1)    0.059    0.227    -6.683   -0.472    0.802

 ( S    129      -1     -1      0   1.477 AU )        -0.770    0.430    0.471
                                                       0.003   -0.736    0.678
                                                       0.638    0.523    0.565

   3.908  -1.284 -10.741  (3,+1)    1.906    0.719  -312.121    4.644    9.124

 ( O    130       0      0      0   0.679 AU )         0.710    0.272   -0.650
                                                       0.636    0.148    0.757
                                                       0.302   -0.951   -0.068

   3.694  -1.683 -11.550  (3,+1)    1.964    0.724  -317.591    4.093    8.903

 ( O    130       0      0      0   0.678 AU )         0.386   -0.604   -0.697
                                                       0.033   -0.746    0.665
                                                      -0.922   -0.280   -0.269

   3.914  -1.377 -11.264  (3,-1)    2.111    0.730  -281.283   -2.838    5.145

 ( O    130       0      0      0   0.685 AU )         0.712   -0.260   -0.652
                                                       0.502   -0.461    0.732
                                                      -0.491   -0.848   -0.198

   2.940  -1.308 -11.003  (3,-3)    5.669    0.966  -689.191  -16.678  -14.922

 ( O    130       0      0      0   0.631 AU )         0.760   -0.625    0.178
                                                      -0.640   -0.673    0.371
                                                       0.112    0.396    0.912

   3.623  -2.269 -10.707  (3,-3)    5.373    0.949  -661.001  -14.869  -13.668

 ( O    130       0      0      0   0.634 AU )        -0.323    0.941    0.095
                                                       0.877    0.261    0.403
                                                      -0.354   -0.214    0.910

   4.990  -1.713 -11.364  (3,+1)   -0.067    0.195    -7.599    0.567    0.879

 ( S    129      -1     -1      0   1.461 AU )         0.629   -0.249   -0.737
                                                       0.618   -0.414    0.668
                                                      -0.472   -0.875   -0.107
 *******************************************************************************


 ****** CP SEARCH FOR NON-EQUIVALENT ATOM    131 O  ******

 SPHERE RADIUS (ANG)            :  3.4926E-01

 CP N.      1   VSCC OF NON-EQUIV. ATOM    131 O 
 *********

 CP TYPE                        :  (3,+1)
 COORD(AU)  (X  Y  Z)           :  5.7553E+00  1.5791E+00  1.0825E+01
 COORD FRACT. CONV. CELL        :  1.3689E-01  4.3793E-02  4.6037E-01
 PROPERTIES (-LAP,GLAP,RHO)     :  1.9487E+00  2.2017E-13  7.2233E-01

 SPECTRAL DECOMP. OF THE HESSIAN OF -LAP(RHO)

 EIGENVALUES (L1 L2 L3)         : -3.0915E+02  3.7867E+00  8.0077E+00
 EIGENVECTORS                   :  8.1982E-02 -3.6688E-01  9.2665E-01
                                  -3.9188E-01 -8.6675E-01 -3.0849E-01
                                   9.1635E-01 -3.3785E-01 -2.1483E-01


 VECTORS FROM NUCLEI TO CP (LENGTHS AND ANGLES MADE WITH PROJ. ONTO YZ,XZ,XY)


 SYM OLD    CELL      RX(ANG)    YZ      XZ      XY
 O      131      0     0     0    0.3597    4.61   24.68   64.83
 S      129      0     0     0    1.2565    1.83   74.40   15.49
 H       32      0     0     0    2.4229   54.97    5.84   34.40
 O      130      1     1     0    2.3159   32.73   47.64   23.72
 H      123      1     1     0    2.6829   40.96   20.99   41.67
 O       24      0     0     0    3.1225   58.26   17.55   25.54
 O       41      0     0     0    3.4779    7.56   43.58   45.43
 O       43      1     1     0    3.2490    8.24    0.95   81.70

 CP N.      2   VSCC OF NON-EQUIV. ATOM    131 O 
 *********

 CP TYPE                        :  (3,-3)
 COORD(AU)  (X  Y  Z)           :  6.3026E+00  1.9221E+00  1.0017E+01
 COORD FRACT. CONV. CELL        :  1.5011E-01  5.2572E-02  4.2600E-01
 PROPERTIES (-LAP,GLAP,RHO)     :  5.2643E+00  5.9964E-14  9.4185E-01

 SPECTRAL DECOMP. OF THE HESSIAN OF -LAP(RHO)

 EIGENVALUES (L1 L2 L3)         : -6.4868E+02 -1.4587E+01 -1.2407E+01
 EIGENVECTORS                   :  9.4821E-01  2.2063E-01 -2.2853E-01
                                   9.3696E-02 -8.8169E-01 -4.6243E-01
                                  -3.0352E-01  4.1707E-01 -8.5670E-01


 VECTORS FROM NUCLEI TO CP (LENGTHS AND ANGLES MADE WITH PROJ. ONTO YZ,XZ,XY)


 SYM OLD    CELL      RX(ANG)    YZ      XZ      XY
 O      131      0     0     0    0.3359   71.47    5.36   17.68
 S      129      0     0     0    1.6068    8.93   60.02   28.35
 H       32      0     0     0    1.9849   58.61   12.46   28.30
 O      130      1     1     0    2.7940   33.49   42.64   29.11
 H      123      1     1     0    3.1133   41.14   14.50   45.25
 O       24      0     0     0    2.7753   58.49   23.87   19.33
 O       41      0     0     0    3.2988    2.92   51.42   38.42
 O       43      1     1     0    3.6491    2.77    2.01   86.58

 CP N.      3   VSCC OF NON-EQUIV. ATOM    131 O 
 *********

 CP TYPE                        :  (3,-3)
 COORD(AU)  (X  Y  Z)           :  5.1234E+00  2.1171E+00  1.0244E+01
 COORD FRACT. CONV. CELL        :  1.2280E-01  5.5581E-02  4.3557E-01
 PROPERTIES (-LAP,GLAP,RHO)     :  5.5637E+00  2.6319E-14  9.6000E-01

 SPECTRAL DECOMP. OF THE HESSIAN OF -LAP(RHO)

 EIGENVALUES (L1 L2 L3)         : -6.8086E+02 -1.6203E+01 -1.3524E+01
 EIGENVECTORS                   :  9.1335E-01 -3.1506E-01  2.5793E-01
                                  -4.0381E-01 -7.8213E-01  4.7457E-01
                                  -5.2219E-02  5.3760E-01  8.4158E-01


 VECTORS FROM NUCLEI TO CP (LENGTHS AND ANGLES MADE WITH PROJ. ONTO YZ,XZ,XY)


 SYM OLD    CELL      RX(ANG)    YZ      XZ      XY
 O      131      0     0     0    0.3342   66.05   23.73    3.06
 S      129      0     0     0    1.6700   12.96   63.53   22.65
 H       32      0     0     0    2.6044   62.90   11.77   24.04
 O      130      1     1     0    2.5222   21.34   52.31   29.43
 H      123      1     1     0    2.6191   32.94   14.96   52.99
 O       24      0     0     0    3.3943   61.75   21.17   17.81
 O       41      0     0     0    3.5397   12.93   49.26   37.81
 O       43      1     1     0    3.6198   12.77    3.66   76.70

 CP N.      4   VSCC OF NON-EQUIV. ATOM    131 O 
 *********

 CP TYPE                        :  (3,+1)
 COORD(AU)  (X  Y  Z)           :  5.5561E+00  1.2097E+00  1.0092E+01
 COORD FRACT. CONV. CELL        :  1.3173E-01  3.4941E-02  4.2922E-01
 PROPERTIES (-LAP,GLAP,RHO)     :  1.9774E+00  5.4772E-14  7.2469E-01

 SPECTRAL DECOMP. OF THE HESSIAN OF -LAP(RHO)

 EIGENVALUES (L1 L2 L3)         : -3.1142E+02  3.4755E+00  7.8352E+00
 EIGENVECTORS                   : -2.2140E-01  2.3904E-03 -9.7518E-01
                                  -9.5452E-01 -2.0528E-01  2.1620E-01
                                  -1.9966E-01  9.7870E-01  4.7729E-02


 VECTORS FROM NUCLEI TO CP (LENGTHS AND ANGLES MADE WITH PROJ. ONTO YZ,XZ,XY)


 SYM OLD    CELL      RX(ANG)    YZ      XZ      XY
 O      131      0     0     0    0.3595   12.29   74.05   10.01
 S      129      0     0     0    1.2548    6.66   53.97   35.21
 H       32      0     0     0    2.3086   64.83    1.27   25.14
 O      130      1     1     0    2.3137   29.71   40.93   34.77
 H      123      1     1     0    2.9642   33.90   22.96   47.11
 O       24      0     0     0    3.0162   66.26   14.32   18.52
 O       41      0     0     0    3.0874   10.51   45.50   42.60
 O       43      1     1     0    3.6565    8.99    3.91   80.19

 CP N.      5   VSCC OF NON-EQUIV. ATOM    131 O 
 *********

 CP TYPE                        :  (3,-1)
 COORD(AU)  (X  Y  Z)           :  5.5047E+00  3.8072E-01  1.0515E+01
 COORD FRACT. CONV. CELL        :  1.2946E-01  1.5468E-02  4.4730E-01
 PROPERTIES (-LAP,GLAP,RHO)     :  5.0367E-02  2.4754E-15  2.2717E-01

 SPECTRAL DECOMP. OF THE HESSIAN OF -LAP(RHO)

 EIGENVALUES (L1 L2 L3)         : -6.4563E+00 -4.7080E-01  7.7480E-01
 EIGENVECTORS                   :  2.6041E-01 -9.0728E-01  3.3020E-01
                                  -6.6630E-01  7.8636E-02  7.4153E-01
                                   6.9874E-01  4.1311E-01  5.8404E-01


 VECTORS FROM NUCLEI TO CP (LENGTHS AND ANGLES MADE WITH PROJ. ONTO YZ,XZ,XY)


 SYM OLD    CELL      RX(ANG)    YZ      XZ      XY
 O      131      0     0     0    0.8075    7.38   76.25   11.54
 S      129      0     0     0    0.7819   12.76   47.46   39.71
 H       32      0     0     0    2.4660   59.13    9.04   29.24
 O      130      1     1     0    1.9009   36.08   34.51   35.20
 H      123      1     1     0    2.9970   32.86   32.16   40.53
 O       24      0     0     0    3.0440   66.35    5.79   22.85
 O       41      0     0     0    2.9682   11.47   36.44   51.21
 O       43      1     1     0    3.4999    9.84   11.33   74.90

 CP N.      6   VSCC OF NON-EQUIV. ATOM    131 O 
 *********

 CP TYPE                        :  (3,-1)
 COORD(AU)  (X  Y  Z)           :  5.7041E+00  7.4959E-01  1.1253E+01
 COORD FRACT. CONV. CELL        :  1.3462E-01  2.4310E-02  4.7863E-01
 PROPERTIES (-LAP,GLAP,RHO)     :  4.9357E-02  5.7066E-13  2.2708E-01

 SPECTRAL DECOMP. OF THE HESSIAN OF -LAP(RHO)

 EIGENVALUES (L1 L2 L3)         : -6.4492E+00 -4.6387E-01  7.8711E-01
 EIGENVECTORS                   :  8.4359E-02 -9.9178E-01  9.6165E-02
                                  -9.9564E-01 -8.0034E-02  4.7986E-02
                                   3.9895E-02  9.9794E-02  9.9421E-01


 VECTORS FROM NUCLEI TO CP (LENGTHS AND ANGLES MADE WITH PROJ. ONTO YZ,XZ,XY)


 SYM OLD    CELL      RX(ANG)    YZ      XZ      XY
 O      131      0     0     0    0.8072    0.13   46.87   43.13
 S      129      0     0     0    0.7819    4.93   80.56    8.03
 H       32      0     0     0    2.5739   51.38    4.28   38.29
 O      130      1     1     0    1.9017   40.10   41.99   21.77
 H      123      1     1     0    2.7173   39.59   31.01   34.97
 O       24      0     0     0    3.1498   58.40    9.18   29.94
 O       41      0     0     0    3.3737    8.26   35.49   53.27
 O       43      1     1     0    3.0689    9.24    9.24   76.88

 CP N.      7   VSCC OF NON-EQUIV. ATOM    131 O 
 *********

 CP TYPE                        :  (3,+1)
 COORD(AU)  (X  Y  Z)           :  5.2872E+00  1.5418E+00  9.0679E+00
 COORD FRACT. CONV. CELL        :  1.2585E-01  4.2411E-02  3.8563E-01
 PROPERTIES (-LAP,GLAP,RHO)     : -5.2943E-01  1.4445E-14  1.8745E-01

 SPECTRAL DECOMP. OF THE HESSIAN OF -LAP(RHO)

 EIGENVALUES (L1 L2 L3)         : -2.6123E-01  5.1007E-02  6.3676E+00
 EIGENVECTORS                   : -3.4452E-02  9.4601E-01  3.2231E-01
                                  -9.5286E-01 -1.2837E-01  2.7491E-01
                                   3.0144E-01 -2.9764E-01  9.0584E-01


 VECTORS FROM NUCLEI TO CP (LENGTHS AND ANGLES MADE WITH PROJ. ONTO YZ,XZ,XY)


 SYM OLD    CELL      RX(ANG)    YZ      XZ      XY
 O      131      0     0     0    0.6649   19.21   14.81   65.38
 S      129      0     0     0    1.7612    9.40   42.53   45.94
 H       32      0     0     0    2.2857   77.52    5.70   11.06
 O      130      1     1     0    2.7083   21.77   38.65   43.42
 H      123      1     1     0    3.2571   27.64   17.52   56.42
 O       24      0     0     0    3.0743   70.80   17.44    7.78
 O       41      0     0     0    2.9233   13.96   54.42   31.97
 O       43      1     1     0    4.2066    9.76    1.00   80.18

 NON-EQUIV. ATOM O    131  NUMBER OF CPS FOUND:  7


      ********** C R I T I C A L  P O I N T S  F O U N D **********


   X(AU)   Y(AU)   Z(AU)    TYPE     -LAP      RHO    L1(V1)   L2(V2)   L3(V3)

 *******************************************************************************

   5.755   1.579  10.825  (3,+1)    1.949    0.722  -309.151    3.787    8.008

 ( O    131       0      0      0   0.680 AU )         0.082   -0.367    0.927
                                                      -0.392   -0.867   -0.308
                                                       0.916   -0.338   -0.215

   6.303   1.922  10.017  (3,-3)    5.264    0.942  -648.681  -14.587  -12.407

 ( O    131       0      0      0   0.635 AU )         0.948    0.221   -0.229
                                                       0.094   -0.882   -0.462
                                                      -0.304    0.417   -0.857

   5.123   2.117  10.244  (3,-3)    5.564    0.960  -680.858  -16.203  -13.524

 ( O    131       0      0      0   0.632 AU )         0.913   -0.315    0.258
                                                      -0.404   -0.782    0.475
                                                      -0.052    0.538    0.842

   5.556   1.210  10.092  (3,+1)    1.977    0.725  -311.420    3.476    7.835

 ( O    131       0      0      0   0.679 AU )        -0.221    0.002   -0.975
                                                      -0.955   -0.205    0.216
                                                      -0.200    0.979    0.048

   5.505   0.381  10.515  (3,-1)    0.050    0.227    -6.456   -0.471    0.775

 ( S    129       0      0      0   1.478 AU )         0.260   -0.907    0.330
                                                      -0.666    0.079    0.742
                                                       0.699    0.413    0.584

   5.704   0.750  11.253  (3,-1)    0.049    0.227    -6.449   -0.464    0.787

 ( S    129       0      0      0   1.478 AU )         0.084   -0.992    0.096
                                                      -0.996   -0.080    0.048
                                                       0.040    0.100    0.994

   5.287   1.542   9.068  (3,+1)   -0.529    0.187    -0.261    0.051    6.368

 ( O    131       0      0      0   1.257 AU )        -0.034    0.946    0.322
                                                      -0.953   -0.128    0.275
                                                       0.301   -0.298    0.906
 *******************************************************************************
 TTTTTTTTTTTTTTTTTTTTTTTTTTTTTT TLAP        TELAPSE      833.19 TCPU      833.00
 TTTTTTTTTTTTTTTTTTTTTTTTTTTTTT END         TELAPSE      833.19 TCPU      833.00
 EEEEEEEEEE TERMINATION  DATE 06 08 2025 TIME 16:15:25.2
